
                                 *****************
                                 * O   R   C   A *
                                 *****************

                                            #,                                       
                                            ###                                      
                                            ####                                     
                                            #####                                    
                                            ######                                   
                                           ########,                                 
                                     ,,################,,,,,                         
                               ,,#################################,,                 
                          ,,##########################################,,             
                       ,#########################################, ''#####,          
                    ,#############################################,,   '####,        
                  ,##################################################,,,,####,       
                ,###########''''           ''''###############################       
              ,#####''   ,,,,##########,,,,          '''####'''          '####       
            ,##' ,,,,###########################,,,                        '##       
           ' ,,###''''                  '''############,,,                           
         ,,##''                                '''############,,,,        ,,,,,,###''
      ,#''                                            '''#######################'''  
     '                                                          ''''####''''         
             ,#######,   #######,   ,#######,      ##                                
            ,#'     '#,  ##    ##  ,#'     '#,    #''#        ######   ,####,        
            ##       ##  ##   ,#'  ##            #'  '#       #        #'  '#        
            ##       ##  #######   ##           ,######,      #####,   #    #        
            '#,     ,#'  ##    ##  '#,     ,#' ,#      #,         ##   #,  ,#        
             '#######'   ##     ##  '#######'  #'      '#     #####' # '####'        



                  #######################################################
                  #                        -***-                        #
                  #          Department of theory and spectroscopy      #
                  #    Directorship and core code : Frank Neese         #
                  #        Max Planck Institute fuer Kohlenforschung    #
                  #                Kaiser Wilhelm Platz 1               #
                  #                 D-45470 Muelheim/Ruhr               #
                  #                      Germany                        #
                  #                                                     #
                  #                  All rights reserved                #
                  #                        -***-                        #
                  #######################################################


                         Program Version 5.0.2 -  RELEASE  -


 With contributions from (in alphabetic order):
   Daniel Aravena         : Magnetic Suceptibility
   Michael Atanasov       : Ab Initio Ligand Field Theory (pilot matlab implementation)
   Alexander A. Auer      : GIAO ZORA, VPT2 properties, NMR spectrum
   Ute Becker             : Parallelization
   Giovanni Bistoni       : ED, misc. LED, open-shell LED, HFLD
   Martin Brehm           : Molecular dynamics
   Dmytro Bykov           : SCF Hessian
   Vijay G. Chilkuri      : MRCI spin determinant printing, contributions to CSF-ICE
   Dipayan Datta          : RHF DLPNO-CCSD density
   Achintya Kumar Dutta   : EOM-CC, STEOM-CC
   Dmitry Ganyushin       : Spin-Orbit,Spin-Spin,Magnetic field MRCI
   Miquel Garcia          : C-PCM and meta-GGA Hessian, CC/C-PCM, Gaussian charge scheme
   Yang Guo               : DLPNO-NEVPT2, F12-NEVPT2, CIM, IAO-localization
   Andreas Hansen         : Spin unrestricted coupled pair/coupled cluster methods
   Benjamin Helmich-Paris : MC-RPA, TRAH-SCF, COSX integrals
   Lee Huntington         : MR-EOM, pCC
   Robert Izsak           : Overlap fitted RIJCOSX, COSX-SCS-MP3, EOM
   Marcus Kettner         : VPT2
   Christian Kollmar      : KDIIS, OOCD, Brueckner-CCSD(T), CCSD density, CASPT2, CASPT2-K
   Simone Kossmann        : Meta GGA functionals, TD-DFT gradient, OOMP2, MP2 Hessian
   Martin Krupicka        : Initial AUTO-CI
   Lucas Lang             : DCDCAS
   Marvin Lechner         : AUTO-CI (C++ implementation), FIC-MRCC
   Dagmar Lenk            : GEPOL surface, SMD
   Dimitrios Liakos       : Extrapolation schemes; Compound Job, initial MDCI parallelization
   Dimitrios Manganas     : Further ROCIS development; embedding schemes
   Dimitrios Pantazis     : SARC Basis sets
   Anastasios Papadopoulos: AUTO-CI, single reference methods and gradients
   Taras Petrenko         : DFT Hessian,TD-DFT gradient, ASA, ECA, R-Raman, ABS, FL, XAS/XES, NRVS
   Peter Pinski           : DLPNO-MP2, DLPNO-MP2 Gradient
   Christoph Reimann      : Effective Core Potentials
   Marius Retegan         : Local ZFS, SOC
   Christoph Riplinger    : Optimizer, TS searches, QM/MM, DLPNO-CCSD(T), (RO)-DLPNO pert. Triples
   Tobias Risthaus        : Range-separated hybrids, TD-DFT gradient, RPA, STAB
   Michael Roemelt        : Original ROCIS implementation
   Masaaki Saitow         : Open-shell DLPNO-CCSD energy and density
   Barbara Sandhoefer     : DKH picture change effects
   Avijit Sen             : IP-ROCIS
   Kantharuban Sivalingam : CASSCF convergence, NEVPT2, FIC-MRCI
   Bernardo de Souza      : ESD, SOC TD-DFT
   Georgi Stoychev        : AutoAux, RI-MP2 NMR, DLPNO-MP2 response
   Willem Van den Heuvel  : Paramagnetic NMR
   Boris Wezisla          : Elementary symmetry handling
   Frank Wennmohs         : Technical directorship


 We gratefully acknowledge several colleagues who have allowed us to
 interface, adapt or use parts of their codes:
   Stefan Grimme, W. Hujo, H. Kruse, P. Pracht,  : VdW corrections, initial TS optimization,
                  C. Bannwarth, S. Ehlert          DFT functionals, gCP, sTDA/sTD-DF
   Ed Valeev, F. Pavosevic, A. Kumar             : LibInt (2-el integral package), F12 methods
   Garnet Chan, S. Sharma, J. Yang, R. Olivares  : DMRG
   Ulf Ekstrom                                   : XCFun DFT Library
   Mihaly Kallay                                 : mrcc  (arbitrary order and MRCC methods)
   Jiri Pittner, Ondrej Demel                    : Mk-CCSD
   Frank Weinhold                                : gennbo (NPA and NBO analysis)
   Christopher J. Cramer and Donald G. Truhlar   : smd solvation model
   Lars Goerigk                                  : TD-DFT with DH, B97 family of functionals
   V. Asgeirsson, H. Jonsson                     : NEB implementation
   FAccTs GmbH                                   : IRC, NEB, NEB-TS, DLPNO-Multilevel, CI-OPT
                                                   MM, QMMM, 2- and 3-layer-ONIOM, Crystal-QMMM,
                                                   LR-CPCM, SF, NACMEs, symmetry and pop. for TD-DFT,
                                                   nearIR, NL-DFT gradient (VV10), updates on ESD,
                                                   ML-optimized integration grids
   S Lehtola, MJT Oliveira, MAL Marques          : LibXC Library
   Liviu Ungur et al                             : ANISO software


 Your calculation uses the libint2 library for the computation of 2-el integrals
 For citations please refer to: http://libint.valeyev.net

 Your ORCA version has been built with support for libXC version: 5.1.0
 For citations please refer to: https://tddft.org/programs/libxc/

 This ORCA versions uses:
   CBLAS   interface :  Fast vector & matrix operations
   LAPACKE interface :  Fast linear algebra routines
   SCALAPACK package :  Parallel linear algebra routines
   Shared memory     :  Shared parallel matrices
   BLAS/LAPACK       :  OpenBLAS 0.3.15  USE64BITINT DYNAMIC_ARCH NO_AFFINITY Zen SINGLE_THREADED
        Core in use  :  Zen
   Copyright (c) 2011-2014, The OpenBLAS Project




***************************************
The coordinates will be read from file: valinomycine.xyz
***************************************


================================================================================

----- Orbital basis set information -----
Your calculation utilizes the basis: pc-3
   H, C-F              : F. Jensen, J. Chem. Phys. 115, 9113 (2001).
                         F. Jensen, J. Chem. Phys. 116, 7372 (2002).
                         F. Jensen, J. Chem. Phys. 117, 9234 (2002).
   Si-Cl               : F. Jensen, T. Helgaker, J. Chem. Phys. 121, 3463 (2004).
   He-B, Ne-Mg, Al, Ar : F. Jensen, J. Phys. Chem. A 111, 11198 (2007).
   K, Ca, Ga-Kr        : F. Jensen, J. Chem. Phys. 136, 094110 (2012).
   Sc-Zn               : F. Jensen, J. Chem. Phys. 138, 014107 (2013).

================================================================================
                                        WARNINGS
                       Please study these warnings very carefully!
================================================================================


INFO   : the flag for use of the SHARK integral package has been found!

================================================================================
                                       INPUT FILE
================================================================================
NAME = pc3.inp
|  1> !rhf pc-3 nori defgrid3 verytightscf
|  2> %pal nprocs 128 end
|  3> %maxcore 5000
|  4> 
|  5> %scf
|  6>   maxiter 120
|  7> end
|  8> 
|  9> *xyzfile 0 1 valinomycine.xyz
| 10> 
| 11>                          ****END OF INPUT****
================================================================================

                       ****************************
                       * Single Point Calculation *
                       ****************************

---------------------------------
CARTESIAN COORDINATES (ANGSTROEM)
---------------------------------
  O      0.186321    1.146588   -4.103502
  O      0.368321    2.264087   -0.090002
  O      1.043021    3.226387   -3.789802
  O      1.940321   -0.974512   -6.133202
  O      2.312021    0.411988    1.916798
  O      2.331221   -1.005513   -2.178402
  O      2.427421    3.122887    0.381298
  O      4.082321    2.046788   -2.639602
  O      4.246421   -1.088313   -3.365902
  O     -0.290279   -0.560612    4.091098
  O     -0.665779   -1.812612    0.071898
  O     -1.276979   -2.495512    3.669998
  O     -1.992679    1.757087    5.759898
  O     -2.558979    0.101587   -2.220002
  O     -2.574979    1.612288    2.034198
  O     -2.733579   -2.536912   -0.471002
  O     -4.208979   -1.315913    2.528398
  O     -4.409879    1.788188    3.129998
  N      0.463221    1.477788    2.683098
  N      2.914021    0.743088   -4.879902
  N      3.680621    1.012088   -0.668702
  N     -0.686279   -0.943412   -2.702702
  N     -3.055079    0.049888    4.717098
  N     -3.932579   -0.333012    0.477198
  C      0.457821    5.223388    1.794998
  C      0.824921   -0.881413    3.241698
  C      1.038321    2.760788    2.181798
  C      1.070421    2.150287   -4.364202
  C      1.199421    2.626288    0.663398
  C      1.221021    0.411988    2.539898
  C      1.738021   -2.702412    4.717098
  C      1.951221    4.105887   -6.527102
  C      2.004421   -1.440112    4.029498
  C      2.054821    1.736387   -5.467202
  C      2.524421   -0.457112    5.118098
  C      2.713721    3.257388   -1.084102
  C      2.740621   -0.633012   -5.238002
  C      2.902721    2.957387   -5.911202
  C      3.466421   -1.647012   -4.450202
  C      3.502121   -0.808912   -2.273002
  C      3.506621    4.561187   -1.270302
  C      3.517321    2.046788   -1.485102
  C      3.912821    2.450387   -7.042802
  C      4.375921   -0.198513   -1.141402
  C      4.505221   -2.381712   -5.381202
  C      4.564321   -1.150413    0.047498
  C      5.141221   -3.581913   -4.665002
  C      5.269521   -2.464513   -0.511102
  C      5.475521   -0.539913    1.121798
  C      5.722621   -1.574612   -5.710702
  C     -0.032779   -3.509512   -4.135102
  C     -0.055979    3.909287    2.453898
  C     -0.082979    4.157587    4.000898
  C     -0.236079   -3.343913   -2.545102
  C     -0.816579   -4.647712   -1.943502
  C     -0.889279    1.498387   -3.159602
  C     -1.210379   -2.174713   -2.230002
  C     -1.239779   -1.440112    4.272998
  C     -1.422779    0.132587   -2.631102
  C     -1.507879   -2.154012   -0.726002
  C     -1.967079    2.284788   -3.891502
  C     -2.256279   -0.974512    5.318698
  C     -2.389379   -3.271513    6.478898
  C     -2.846379    1.343187    4.989198
  C     -3.051479   -2.661012    0.906898
  C     -3.164879   -2.185112    5.848698
  C     -3.634779    2.388288    4.215698
  C     -3.730679    1.446687    2.052798
  C     -3.760479   -1.409112    1.350998
  C     -3.972979   -3.892313    0.964198
  C     -4.041379   -4.440713    2.453898
  C     -4.143079   -1.491812    6.887098
  C     -4.584679    0.846588    0.995698
  C     -4.741179    2.998787    5.218398
  C     -4.823679    1.819187   -0.167302
  C     -5.343279   -3.664712    0.319698
  C     -5.544079    3.029787    0.247998
  C     -5.848679    1.115587   -1.198702
  H      0.170121   -0.929813   -3.218802
  H      0.261321   -2.637612   -4.526602
  H      0.549421   -1.551912    2.552898
  H      0.653021   -3.154113   -2.128602
  H      0.663121   -4.205513   -4.311902
  H      0.814421    4.478887    4.303198
  H      0.862921    5.811587    2.494998
  H      1.038121   -2.560112    5.416998
  H      1.147621    5.003387    1.105198
  H      1.306521    3.695088   -7.171802
  H      1.415421   -3.380612    4.056798
  H      1.445121    4.551588   -5.788702
  H      1.554821    1.368688   -6.251202
  H      1.753821    0.046587    5.508598
  H      1.861421    3.298287   -1.605402
  H      1.904721    2.987687    2.626598
  H      2.511521    4.783787   -7.003102
  H      2.578121   -3.031312    5.148498
  H      2.753821   -1.587312    3.383998
  H      2.822421   -2.325812   -4.097302
  H      2.885721    5.291687   -1.554602
  H      2.985421   -0.972612    5.840498
  H      3.168621    0.187087    4.705898
  H      3.331521    1.054388    0.267398
  H      3.397921    2.000787   -7.772802
  H      3.417421    3.326087   -5.137202
  H      3.521521    0.990687   -4.125202
  H      3.677421   -1.390312    0.442198
  H      3.943121    4.812688   -0.406502
  H      4.047821   -2.684712   -6.217302
  H      4.207421    4.428387   -1.971102
  H      4.411421    3.231087   -7.419302
  H      4.430221   -4.106113   -4.196302
  H      4.561521    1.801687   -6.644902
  H      4.583421   -3.058812   -0.930702
  H      4.918621   -0.053012    1.794598
  H      5.271121    0.043388   -1.515602
  H      5.490921   -0.886713   -6.398602
  H      5.598621   -4.166512   -5.335202
  H      5.714921   -2.949812    0.241198
  H      5.809721   -3.255912   -3.996602
  H      5.953521   -2.211112   -1.195202
  H      5.987921   -1.267613    1.577798
  H      6.055421   -1.120212   -4.884402
  H      6.114621    0.099087    0.693698
  H      6.435521   -2.177112   -6.069402
  H     -0.081479   -5.174912   -1.517402
  H     -0.306579    5.700187    1.361098
  H     -0.307279    3.304488    4.471998
  H     -0.527079    1.377787    2.779898
  H     -0.530079    2.036087   -2.396802
  H     -0.773579    4.848187    4.216098
  H     -0.896579   -3.788312   -4.554802
  H     -0.954279    3.642687    2.104798
  H     -1.238579   -5.191212   -2.669102
  H     -1.505079   -4.419912   -1.255002
  H     -1.538379    2.923688   -4.530402
  H     -1.737979   -2.882312    7.130298
  H     -1.758979   -0.602213    6.102298
  H     -1.892879   -3.779113    5.774798
  H     -2.069279   -2.367012   -2.704702
  H     -2.235679   -2.817613    1.463698
  H     -2.516279    2.794487   -3.229302
  H     -2.555779    1.653687   -4.396602
  H     -3.011079   -3.890213    6.959298
  H     -3.036179    3.118887    3.887198
  H     -3.156179   -4.831313    2.706798
  H     -3.387679   -0.276112   -0.359402
  H     -3.522779   -4.607513    0.429598
  H     -3.608479   -0.972412    7.553798
  H     -3.703079   -2.540012    5.084198
  H     -3.783179   -0.206113    4.081198
  H     -3.966479    2.035887   -0.634502
  H     -4.263879   -3.690112    3.076098
  H     -4.301779    3.633887    5.853598
  H     -4.676979   -2.191912    7.361398
  H     -4.746979   -5.146412    2.517798
  H     -4.761379   -0.873612    6.401898
  H     -4.897679    3.685587    0.638098
  H     -5.170579    2.256787    5.733398
  H     -5.267479   -2.959612   -0.385402
  H     -5.333179    0.589187   -1.874802
  H     -5.438079    3.484488    4.690798
  H     -5.469679    0.598187    1.389698
  H     -5.662979   -4.516813   -0.094702
  H     -5.995079    3.438587   -0.545302
  H     -5.995479   -3.368812    1.017598
  H     -6.230679    2.790587    0.934598
  H     -6.388179    1.817287   -1.664002
  H     -6.460179    0.504088   -0.696602

----------------------------
CARTESIAN COORDINATES (A.U.)
----------------------------
  NO LB      ZA    FRAG     MASS         X           Y           Z
   0 O     8.0000    0    15.999    0.352096    2.166736   -7.754496
   1 O     8.0000    0    15.999    0.696027    4.278505   -0.170080
   2 O     8.0000    0    15.999    1.971025    6.096989   -7.161689
   3 O     8.0000    0    15.999    3.666676   -1.841562  -11.590073
   4 O     8.0000    0    15.999    4.369087    0.778544    3.622223
   5 O     8.0000    0    15.999    4.405370   -1.900143   -4.116584
   6 O     8.0000    0    15.999    4.587162    5.901402    0.720548
   7 O     8.0000    0    15.999    7.714469    3.867868   -4.988126
   8 O     8.0000    0    15.999    8.024574   -2.056613   -6.360634
   9 O     8.0000    0    15.999   -0.548547   -1.059404    7.731054
  10 O     8.0000    0    15.999   -1.258139   -3.425341    0.135867
  11 O     8.0000    0    15.999   -2.413140   -4.715835    6.935290
  12 O     8.0000    0    15.999   -3.765617    3.320414   10.884629
  13 O     8.0000    0    15.999   -4.835769    0.191973   -4.195197
  14 O     8.0000    0    15.999   -4.866004    3.046782    3.844076
  15 O     8.0000    0    15.999   -5.165715   -4.794070   -0.890066
  16 O     8.0000    0    15.999   -7.953817   -2.486714    4.777979
  17 O     8.0000    0    15.999   -8.333463    3.379185    5.914838
  18 N     7.0000    0    14.007    0.875362    2.792614    5.070320
  19 N     7.0000    0    14.007    5.506702    1.404232   -9.221679
  20 N     7.0000    0    14.007    6.955367    1.912568   -1.263664
  21 N     7.0000    0    14.007   -1.296879   -1.782791   -5.107367
  22 N     7.0000    0    14.007   -5.773262    0.094274    8.914023
  23 N     7.0000    0    14.007   -7.431496   -0.629302    0.901773
  24 C     6.0000    0    12.011    0.865157    9.870772    3.392054
  25 C     6.0000    0    12.011    1.558876   -1.665628    6.125921
  26 C     6.0000    0    12.011    1.962143    5.217132    4.123000
  27 C     6.0000    0    12.011    2.022803    4.063454   -8.247147
  28 C     6.0000    0    12.011    2.266578    4.962964    1.253640
  29 C     6.0000    0    12.011    2.307396    0.778544    4.799711
  30 C     6.0000    0    12.011    3.284385   -5.106820    8.914023
  31 C     6.0000    0    12.011    3.687274    7.759003  -12.334436
  32 C     6.0000    0    12.011    3.787808   -2.721418    7.614647
  33 C     6.0000    0    12.011    3.883050    3.281297  -10.331515
  34 C     6.0000    0    12.011    4.770465   -0.863817    9.671803
  35 C     6.0000    0    12.011    5.128190    6.155570   -2.048657
  36 C     6.0000    0    12.011    5.179024   -1.196220   -9.898390
  37 C     6.0000    0    12.011    5.485349    5.588652  -11.170554
  38 C     6.0000    0    12.011    6.550587   -3.112403   -8.409664
  39 C     6.0000    0    12.011    6.618050   -1.528623   -4.295352
  40 C     6.0000    0    12.011    6.626554    8.619395   -2.400524
  41 C     6.0000    0    12.011    6.646774    3.867868   -2.806437
  42 C     6.0000    0    12.011    7.394161    4.630561  -13.308968
  43 C     6.0000    0    12.011    8.269293   -0.375134   -2.156938
  44 C     6.0000    0    12.011    8.513635   -4.500784  -10.168999
  45 C     6.0000    0    12.011    8.625317   -2.173965    0.089757
  46 C     6.0000    0    12.011    9.715500   -6.768834   -8.815577
  47 C     6.0000    0    12.011    9.957952   -4.657254   -0.965844
  48 C     6.0000    0    12.011   10.347236   -1.020287    2.119890
  49 C     6.0000    0    12.011   10.814187   -2.975586  -10.791664
  50 C     6.0000    0    12.011   -0.061943   -6.632017   -7.814211
  51 C     6.0000    0    12.011   -0.105784    7.387483    4.637194
  52 C     6.0000    0    12.011   -0.156807    7.856702    7.560601
  53 C     6.0000    0    12.011   -0.446124   -6.319079   -4.809546
  54 C     6.0000    0    12.011   -1.543110   -8.782904   -3.672687
  55 C     6.0000    0    12.011   -1.680493    2.831542   -5.970783
  56 C     6.0000    0    12.011   -2.287284   -4.109611   -4.214094
  57 C     6.0000    0    12.011   -2.342842   -2.721418    8.074795
  58 C     6.0000    0    12.011   -2.688662    0.250554   -4.972063
  59 C     6.0000    0    12.011   -2.849478   -4.070494   -1.371946
  60 C     6.0000    0    12.011   -3.717240    4.317623   -7.353874
  61 C     6.0000    0    12.011   -4.263749   -1.841562   10.050882
  62 C     6.0000    0    12.011   -4.515271   -6.182263   12.243342
  63 C     6.0000    0    12.011   -5.378876    2.538257    9.428217
  64 C     6.0000    0    12.011   -5.766459   -5.028585    1.713788
  65 C     6.0000    0    12.011   -5.980754   -4.129264   11.052437
  66 C     6.0000    0    12.011   -6.868736    4.513209    7.966514
  67 C     6.0000    0    12.011   -7.049961    2.733843    3.879225
  68 C     6.0000    0    12.011   -7.106275   -2.662837    2.553016
  69 C     6.0000    0    12.011   -7.507841   -7.355405    1.822069
  70 C     6.0000    0    12.011   -7.637099   -8.391730    4.637194
  71 C     6.0000    0    12.011   -7.829284   -2.819117   13.014728
  72 C     6.0000    0    12.011   -8.663787    1.599819    1.881596
  73 C     6.0000    0    12.011   -8.959529    5.666887    9.861342
  74 C     6.0000    0    12.011   -9.115431    3.437766   -0.316156
  75 C     6.0000    0    12.011  -10.097333   -6.925303    0.604141
  76 C     6.0000    0    12.011  -10.476790    5.725469    0.468648
  77 C     6.0000    0    12.011  -11.052401    2.108155   -2.265219
  78 H     1.0000    0     1.008    0.321483   -1.757091   -6.082655
  79 H     1.0000    0     1.008    0.493826   -4.984365   -8.554039
  80 H     1.0000    0     1.008    1.038256   -2.932690    4.824277
  81 H     1.0000    0     1.008    1.234032   -5.960409   -4.022476
  82 H     1.0000    0     1.008    1.253118   -7.947267   -8.148315
  83 H     1.0000    0     1.008    1.539033    8.463871    8.131865
  84 H     1.0000    0     1.008    1.630685   10.982309    4.714862
  85 H     1.0000    0     1.008    1.961765   -4.837911   10.236642
  86 H     1.0000    0     1.008    2.168690    9.455032    2.088521
  87 H     1.0000    0     1.008    2.468968    6.982703  -13.552742
  88 H     1.0000    0     1.008    2.674759   -6.388432    7.666236
  89 H     1.0000    0     1.008    2.730884    8.601254  -10.939062
  90 H     1.0000    0     1.008    2.938187    2.586445  -11.813061
  91 H     1.0000    0     1.008    3.314242    0.088038   10.409741
  92 H     1.0000    0     1.008    3.517577    6.232860   -3.033771
  93 H     1.0000    0     1.008    3.599402    5.645911    4.963550
  94 H     1.0000    0     1.008    4.746088    9.040048  -13.233946
  95 H     1.0000    0     1.008    4.871943   -5.728350    9.729251
  96 H     1.0000    0     1.008    5.203968   -2.999586    6.394829
  97 H     1.0000    0     1.008    5.333604   -4.395149   -7.742779
  98 H     1.0000    0     1.008    5.453223    9.999840   -2.937773
  99 H     1.0000    0     1.008    5.641629   -1.837971   11.036941
 100 H     1.0000    0     1.008    5.987827    0.353544    8.892858
 101 H     1.0000    0     1.008    6.295663    1.992504    0.505308
 102 H     1.0000    0     1.008    6.421141    3.780940  -14.688468
 103 H     1.0000    0     1.008    6.457991    6.285394   -9.707906
 104 H     1.0000    0     1.008    6.654711    1.872128   -7.795503
 105 H     1.0000    0     1.008    6.949319   -2.627310    0.835632
 106 H     1.0000    0     1.008    7.451420    9.094661   -0.768178
 107 H     1.0000    0     1.008    7.649274   -5.073371  -11.748999
 108 H     1.0000    0     1.008    7.950874    8.368440   -3.724844
 109 H     1.0000    0     1.008    8.336378    6.105870  -14.020450
 110 H     1.0000    0     1.008    8.371905   -7.759428   -7.929862
 111 H     1.0000    0     1.008    8.620026    3.404696  -12.557046
 112 H     1.0000    0     1.008    8.661411   -5.780318   -1.758773
 113 H     1.0000    0     1.008    9.294847   -0.100179    3.391298
 114 H     1.0000    0     1.008    9.960976    0.081990   -2.864073
 115 H     1.0000    0     1.008   10.376338   -1.675644  -12.091606
 116 H     1.0000    0     1.008   10.579861   -7.873568  -10.082071
 117 H     1.0000    0     1.008   10.799636   -5.574338    0.455797
 118 H     1.0000    0     1.008   10.978782   -6.152783   -7.552484
 119 H     1.0000    0     1.008   11.250525   -4.178397   -2.258605
 120 H     1.0000    0     1.008   11.315532   -2.395440    2.981605
 121 H     1.0000    0     1.008   11.443088   -2.116895   -9.230183
 122 H     1.0000    0     1.008   11.554960    0.187248    1.310899
 123 H     1.0000    0     1.008   12.161373   -4.114146  -11.469508
 124 H     1.0000    0     1.008   -0.153972   -9.779167   -2.867475
 125 H     1.0000    0     1.008   -0.579350   10.771793    2.572102
 126 H     1.0000    0     1.008   -0.580672    6.244576    8.450851
 127 H     1.0000    0     1.008   -0.996034    2.603641    5.253245
 128 H     1.0000    0     1.008   -1.001703    3.847648   -4.529300
 129 H     1.0000    0     1.008   -1.461852    9.161747    7.967270
 130 H     1.0000    0     1.008   -1.694288   -7.158873   -8.607329
 131 H     1.0000    0     1.008   -1.803325    6.883682    3.977491
 132 H     1.0000    0     1.008   -2.340574   -9.809970   -5.043873
 133 H     1.0000    0     1.008   -2.844186   -8.352424   -2.371611
 134 H     1.0000    0     1.008   -2.907114    5.524969   -8.561220
 135 H     1.0000    0     1.008   -3.284304   -5.446781   13.474310
 136 H     1.0000    0     1.008   -3.323988   -1.138017   11.531671
 137 H     1.0000    0     1.008   -3.577022   -7.141488   10.912786
 138 H     1.0000    0     1.008   -3.910370   -4.473005   -5.111147
 139 H     1.0000    0     1.008   -4.224820   -5.324516    2.765988
 140 H     1.0000    0     1.008   -4.755077    5.280816   -6.102497
 141 H     1.0000    0     1.008   -4.829722    3.125016   -8.308374
 142 H     1.0000    0     1.008   -5.690114   -7.351436   13.151167
 143 H     1.0000    0     1.008   -5.737546    5.893843    7.345739
 144 H     1.0000    0     1.008   -5.964313   -9.129857    5.115106
 145 H     1.0000    0     1.008   -6.401785   -0.521777   -0.679172
 146 H     1.0000    0     1.008   -6.657087   -8.706937    0.811822
 147 H     1.0000    0     1.008   -6.819036   -1.837593   14.274609
 148 H     1.0000    0     1.008   -6.997804   -4.799928    9.607741
 149 H     1.0000    0     1.008   -7.149171   -0.389496    7.712346
 150 H     1.0000    0     1.008   -7.495558    3.847270   -1.199036
 151 H     1.0000    0     1.008   -8.057563   -6.973302    5.812982
 152 H     1.0000    0     1.008   -8.129183    6.867052   11.061696
 153 H     1.0000    0     1.008   -8.838209   -4.142114   13.911025
 154 H     1.0000    0     1.008   -8.970489   -9.725310    4.757948
 155 H     1.0000    0     1.008   -8.997702   -1.650888   12.097833
 156 H     1.0000    0     1.008   -9.255271    6.964751    1.205830
 157 H     1.0000    0     1.008   -9.770977    4.264710   10.834551
 158 H     1.0000    0     1.008   -9.954092   -5.592857   -0.728305
 159 H     1.0000    0     1.008  -10.078247    1.113403   -3.542863
 160 H     1.0000    0     1.008  -10.276479    6.584727    8.864323
 161 H     1.0000    0     1.008  -10.336195    1.130411    2.626148
 162 H     1.0000    0     1.008  -10.701479   -8.535539   -0.178962
 163 H     1.0000    0     1.008  -11.329057    6.497989   -1.030472
 164 H     1.0000    0     1.008  -11.329813   -6.366133    1.922981
 165 H     1.0000    0     1.008  -11.774276    5.273446    1.766134
 166 H     1.0000    0     1.008  -12.071908    3.434176   -3.144509
 167 H     1.0000    0     1.008  -12.207968    0.952587   -1.316388

--------------------------------
INTERNAL COORDINATES (ANGSTROEM)
--------------------------------
 O      0   0   0     0.000000000000     0.00000000     0.00000000
 O      1   0   0     4.170145381159     0.00000000     0.00000000
 O      1   2   0     2.271103392627    66.74619171     0.00000000
 O      1   2   3     3.419833811752   135.64630940   105.73635689
 O      2   1   3     3.351938295971   116.96509980   242.06725113
 O      1   2   3     3.596962667307    67.61740220   118.04188886
 O      2   1   3     2.280253042976   109.83185285   312.16321155
 O      3   1   2     3.457131858926    93.73348023    74.73184030
 O      6   1   2     2.254995150771   104.27527594   230.20944350
 O      5   2   1     3.527817532129    95.36989350   239.92664144
 O      6   1   2     3.833701801132    88.50714459    58.40220031
 O     10   5   2     2.212405955063   116.92254511    94.41246566
 O     10   5   2     3.324874808169   119.66021779   299.64199233
 O      1   2   3     3.489451151686    66.11477204   218.62366216
 O      2   1   3     3.687829140565   118.17528777   134.70931218
 O     11   6   1     2.257243394054   129.97982680    52.50521898
 O     12  10   5     3.360257537749    98.44133752   252.10510617
 O     15   2   1     2.144429168800   164.31242680   264.73825723
 N      5   2   1     2.267422935846    57.98093221   209.75484616
 N      4   1   2     2.338589818673    55.93983539   304.77350499
 N      8   3   1     2.261949113044   106.84889273   293.73532196
 N     14   1   2     2.198187794525    49.72856484   266.72801054
 N     13  10   5     2.265095459357    58.91530050   134.92365038
 N     17  12  10     2.291268384542   110.45503174    70.46679993
 C      7   2   1     3.207798637695    77.48195064   134.73639124
 C     10   5   2     1.438076507005    29.00600829   128.59591634
 C     19   5   2     1.492692433156    88.64610343   303.27847807
 C      3   1   2     1.220113654542    30.20496017   138.70027947
 C      2   1   3     1.178782257247   136.73879498   303.56356921
 C      5   2   1     1.256397472936    78.07583185   232.31480575
 C     26  10   5     2.515272901695    95.54093401   141.51304947
 C      3   1   2     3.015154851745   104.79415721   173.88004447
 C     31  26  10     1.461904241050    33.39789574   235.90547275
 C     20   4   1     1.438676760082    92.27279128   304.59818339
 C     33  31  26     1.556193741152   106.09881979   125.32813807
 C      7   2   1     1.499151459993    90.24111970    14.71776534
 C      4   1   2     1.248393119174    74.54599706   333.09904618
 C     34  20   4     1.551422382847   109.50025789   227.28190650
 C      9   6   1     1.447843976401    87.19120266   299.66741610
 C      6   1   2     1.191053118043   116.42018532   258.94853425
 C     36   7   2     1.537288291115   107.03686333   142.53721600
 C      8   3   1     1.285338574073    84.97392321   272.07797878
 C     38  34  20     1.599334102056   107.34808621    63.12336619
 C     21   8   3     1.473919855352    90.71599648   127.65595765
 C     39   9   6     1.576594599128   105.49169193   200.63304887
 C     44  21   8     1.534630698246   108.59760376   169.88645152
 C     45  39   9     1.535551523069   111.20531422    65.85923725
 C     46  44  21     1.592545073145   107.12469208   178.00940905
 C     46  44  21     1.535290259202   111.61126867   296.16123165
 C     45  39   9     1.497345457802   114.48544074   312.44823600
 C     22  14   1     3.010598149870   133.99580585   239.73161547
 C     25   7   2     1.557240655775    80.58912834    54.17181945
 C     52  25   7     1.567032510831   106.83902465   129.19907879
 C     51  22  14     1.611475798763    54.23795136   266.76438186
 C     54  51  22     1.548805103943   110.12256982   148.90099201
 C      1   2   3     1.473643718814    49.56542695   251.29234674
 C     22  14   1     1.419234226617    91.41528501   191.99847446
 C     12  10   5     1.216084700997    29.88463087   190.81901328
 C     14   1   2     1.208683022963    21.43522593   286.95622977
 C     11   6   1     1.209268696362   102.50499410    52.52106149
 C     56   1   2     1.521760628351   109.40581020   142.66558476
 C     23  13  10     1.431572338375    94.82702865    51.59332421
 C     62  23  13     2.576817543017   142.96428899   134.62824434
 C     13  10   5     1.222331947549    78.76100188   111.79027839
 C     16  11   6     1.419531482567    89.98528977   175.04284102
 C     63  62  23     1.476081721992    34.79783087   359.95277655
 C     18  15   2     1.462752374806    87.68027177   276.14645359
 C     15   2   1     1.167652264161   145.50583908   335.71067923
 C     17  12  10     1.263372173985    88.90914111    95.01012767
 C     65  16  11     1.539007871975   103.89686119   214.88005326
 C     70  65  16     1.588907552377   109.68313720   161.94125094
 C     66  63  62     1.586131990094   111.48213434   243.40868578
 C     24  17  12     1.444137396510    88.53911643   232.69399038
 C     67  18  15     1.613145529703   104.66602071   168.08067707
 C     73  24  17     1.534809682013   108.41326299   187.91295330
 C     70  65  16     1.531307970331   113.65458935   290.92033008
 C     75  73  24     1.468673758872   112.60985240   177.24292777
 C     75  73  24     1.615383521025   107.85485119    64.03885524
 H     22  14   1     0.999982564848   146.76939061   353.85970079
 H     51  22  14     0.999988334932    60.45775671   115.00112029
 H     26  10   5     0.999957969117   110.04643817   234.68383903
 H     54  51  22     0.999997549997   108.55941059   268.57981525
 H     51  22  14     0.999975524700   145.93833368   196.08757325
 H     53  52  25     0.999972869632   109.50523975   306.45297562
 H     25   7   2     1.000042624092   116.41711438   161.35887996
 H     31  26  10     0.999984654882    93.06360460   357.65681179
 H     25   7   2     1.000024039711    29.35759659   244.16761551
 H     32   3   1     1.000016409865   105.73961022    33.31178868
 H     31  26  10     1.000011044939    89.23072254   107.08671332
 H     32   3   1     1.000010129949    46.14918664   135.36304356
 H     34  20   4     0.999929642525   111.39589230   348.89665468
 H     35  33  31     1.000014149900   109.50187105   268.84482984
 H     36   7   2     0.999920891871   110.51747436    22.77682770
 H     27  19   5     0.999989804948   112.29981482   298.44021113
 H     32   3   1     1.000030249542   142.99841296   194.84790507
 H     31  26  10     1.000024589698   142.76122605   229.25029449
 H     33  31  26     0.999969224526   108.24479980   240.00343458
 H     39   9   6     1.000021924760   110.15645773   317.47120362
 H     41  36   7     0.999986774913   109.49606039   261.89429785
 H     35  33  31     1.000061503109   109.49562760    28.83749604
 H     35  33  31     0.999948058651   109.50275443   148.83795743
 H     21   8   3     0.999971654598   149.12867110   301.78630679
 H     43  38  34     1.000081081713   109.50010373    54.23831787
 H     38  34  20     0.999965889418   110.48579793   303.36424835
 H     20   4   1     0.999967049457   147.06412361   113.57244849
 H     46  44  21     0.999965854417   110.22548569    58.98889068
 H     41  36   7     0.999967469471   109.50104018    21.89521480
 H     45  39   9     1.000043484055   109.48362060   187.66482854
 H     41  36   7     0.999938558112   109.49536559   141.89471160
 H     43  38  34     0.999923347062   109.50154270   174.24125745
 H     47  45  39     0.999993164977   109.50228210    44.97096942
 H     43  38  34     0.999973894659   109.50092633   294.24145777
 H     48  46  44     0.999994929987   109.49697325   278.87229372
 H     49  46  44     0.999934527857   109.50543791    91.82302139
 H     44  21   8     0.999962144283   110.09855478    50.28583120
 H     50  45  39     1.000048853807   109.49784694   283.84914467
 H     47  45  39     1.000069977552   109.49733150   164.97120374
 H     48  46  44     0.999926267282   109.50117400   158.87290971
 H     47  45  39     0.999963404330   109.50197953   284.96324664
 H     48  46  44     1.000030184544   109.49555778    38.86561610
 H     49  46  44     1.000018524828   109.50074890   211.82920284
 H     50  45  39     1.000003444994   109.49209280    43.84765721
 H     49  46  44     1.000019709806   109.50194263   331.82094143
 H     50  45  39     0.999949173708   109.49998294   163.84823188
 H     55  54  51     0.999936527986   109.50041672   100.32791101
 H     25   7   2     0.999957404093   126.18257836   306.83954736
 H     53  52  25     1.000012654920   109.49729458   186.44251055
 H     19   5   2     1.000032164483   142.48087160    85.50205706
 H     56   1   2     1.000004884988   110.77964513    21.12525466
 H     53  52  25     1.000083876482   109.49637384    66.44810891
 H     51  22  14     1.000013984902   104.46677277    10.59121806
 H     52  25   7     0.999944628467   111.94220256   251.90292213
 H     55  54  51     0.999985804899   109.50278296   340.32419540
 H     55  54  51     0.999978669773   109.49526984   220.32611551
 H     61  56   1     1.000085051383   109.49886855   319.93774319
 H     63  62  23     1.000060278183    84.99237867   224.44405906
 H     62  23  13     0.999971769602   109.90036979    15.40905373
 H     63  62  23     0.999963409331    96.30495025   115.39320267
 H     57  22  14     1.000014294898   109.02022729    54.85106294
 H     65  16  11     1.000039719211   111.80507243   333.49566883
 H     61  56   1     0.999961784270   109.50546983   199.93513944
 H     61  56   1     0.999990454954   109.49669372    79.93446216
 H     63  62  23     1.000042369102   143.11976004   340.54046145
 H     67  18  15     1.000005284986   111.90691609    49.25827135
 H     71  70  65     1.000052903601   109.49947177   291.16936501
 H     24  17  12     1.000026589646   147.04138228    24.32419911
 H     70  65  16     0.999994119983   106.42370202    47.82706523
 H     72  66  63     1.000031204513   109.49913093    69.62040949
 H     66  63  62     1.000036749325   110.36103227   122.27084048
 H     23  13  10     1.000017209852   145.81100289   231.08962817
 H     75  73  24     1.000013284912   110.96846675   303.64250143
 H     71  70  65     1.000019724805   109.50315970    51.16378224
 H     74  67  18     0.999951703834   109.50144672   195.11360645
 H     72  66  63     1.000074852199   109.49591537   309.62759428
 H     71  70  65     0.999983529864   109.50310807   171.17382882
 H     72  66  63     0.999942583352   109.50598244   189.62966656
 H     77  75  73     1.000042304105   109.49914483    82.80383031
 H     74  67  18     1.000086676244   109.49856620    75.11938225
 H     76  70  65     1.000038829246   109.49476153    26.95968654
 H     78  75  73     0.999974209667   109.50394675   270.24911610
 H     74  67  18     0.999967929486   109.50315451   315.12004719
 H     73  24  17     1.000081776656   109.76461795   306.33110937
 H     76  70  65     1.000004929988   109.50254535   146.95665680
 H     77  75  73     0.999921661932   109.50501728   202.81042026
 H     76  70  65     0.999993029976   109.50406498   266.95914944
 H     77  75  73     1.000027879611   109.49706409   322.80912527
 H     78  75  73     0.999973614652   109.49886845   150.24324204
 H     78  75  73     0.999984454879   109.49831590    30.24743223

---------------------------
INTERNAL COORDINATES (A.U.)
---------------------------
 O      0   0   0     0.000000000000     0.00000000     0.00000000
 O      1   0   0     7.880432709027     0.00000000     0.00000000
 O      1   2   0     4.291763433884    66.74619171     0.00000000
 O      1   2   3     6.462549327735   135.64630940   105.73635689
 O      2   1   3     6.334245397189   116.96509980   242.06725113
 O      1   2   3     6.797274355149    67.61740220   118.04188886
 O      2   1   3     4.309053767265   109.83185285   312.16321155
 O      3   1   2     6.533032422224    93.73348023    74.73184030
 O      6   1   2     4.261323268277   104.27527594   230.20944350
 O      5   2   1     6.666608986171    95.36989350   239.92664144
 O      6   1   2     7.244646483259    88.50714459    58.40220031
 O     10   5   2     4.180841352126   116.92254511    94.41246566
 O     10   5   2     6.283102817014   119.66021779   299.64199233
 O      1   2   3     6.594107034382    66.11477204   218.62366216
 O      2   1   3     6.968987104362   118.17528777   134.70931218
 O     11   6   1     4.265571832365   129.97982680    52.50521898
 O     12  10   5     6.349966485790    98.44133752   252.10510617
 O     15   2   1     4.052383842624   164.31242680   264.73825723
 N      5   2   1     4.284808378520    57.98093221   209.75484616
 N      4   1   2     4.419294296868    55.93983539   304.77350499
 N      8   3   1     4.274464352519   106.84889273   293.73532196
 N     14   1   2     4.153972922581    49.72856484   266.72801054
 N     13  10   5     4.280410085373    58.91530050   134.92365038
 N     17  12  10     4.329869746096   110.45503174    70.46679993
 C      7   2   1     6.061860918010    77.48195064   134.73639124
 C     10   5   2     2.717570757866    29.00600829   128.59591634
 C     19   5   2     2.820779900841    88.64610343   303.27847807
 C      3   1   2     2.305680659342    30.20496017   138.70027947
 C      2   1   3     2.227575637722   136.73879498   303.56356921
 C      5   2   1     2.374247139200    78.07583185   232.31480575
 C     26  10   5     4.753176936277    95.54093401   141.51304947
 C      3   1   2     5.697816921162   104.79415721   173.88004447
 C     31  26  10     2.762598649603    33.39789574   235.90547275
 C     20   4   1     2.718705071792    92.27279128   304.59818339
 C     33  31  26     2.940779982099   106.09881979   125.32813807
 C      7   2   1     2.832985692656    90.24111970    14.71776534
 C      4   1   2     2.359121102710    74.54599706   333.09904618
 C     34  20   4     2.931763421617   109.50025789   227.28190650
 C      9   6   1     2.736028600045    87.19120266   299.66741610
 C      6   1   2     2.250764204054   116.42018532   258.94853425
 C     36   7   2     2.905053859092   107.03686333   142.53721600
 C      8   3   1     2.428937894363    84.97392321   272.07797878
 C     38  34  20     3.022303449527   107.34808621    63.12336619
 C     21   8   3     2.785304869964    90.71599648   127.65595765
 C     39   9   6     2.979332016572   105.49169193   200.63304887
 C     44  21   8     2.900031736394   108.59760376   169.88645152
 C     45  39   9     2.901771843126   111.20531422    65.85923725
 C     46  44  21     3.009474044171   107.12469208   178.00940905
 C     46  44  21     2.901278125968   111.61126867   296.16123165
 C     45  39   9     2.829572843117   114.48544074   312.44823600
 C     22  14   1     5.689206002544   133.99580585   239.73161547
 C     25   7   2     2.942758364024    80.58912834    54.17181945
 C     52  25   7     2.961262288421   106.83902465   129.19907879
 C     51  22  14     3.045247931105    54.23795136   266.76438186
 C     54  51  22     2.926817481272   110.12256982   148.90099201
 C      1   2   3     2.784783047532    49.56542695   251.29234674
 C     22  14   1     2.681964008193    91.41528501   191.99847446
 C     12  10   5     2.298067040537    29.88463087   190.81901328
 C     14   1   2     2.284079896121    21.43522593   286.95622977
 C     11   6   1     2.285186658447   102.50499410    52.52106149
 C     56   1   2     2.875710828968   109.40581020   142.66558476
 C     23  13  10     2.705279660426    94.82702865    51.59332421
 C     62  23  13     4.869479453386   142.96428899   134.62824434
 C     13  10   5     2.309872625611    78.76100188   111.79027839
 C     16  11   6     2.682525740532    89.98528977   175.04284102
 C     63  62  23     2.789390205852    34.79783087   359.95277655
 C     18  15   2     2.764201390126    87.68027177   276.14645359
 C     15   2   1     2.206542998917   145.50583908   335.71067923
 C     17  12  10     2.387427414049    88.90914111    95.01012767
 C     65  16  11     2.908303395981   103.89686119   214.88005326
 C     70  65  16     3.002600126111   109.68313720   161.94125094
 C     66  63  62     2.997355073529   111.48213434   243.40868578
 C     24  17  12     2.729024179159    88.53911643   232.69399038
 C     67  18  15     3.048403265298   104.66602071   168.08067707
 C     73  24  17     2.900369966695   108.41326299   187.91295330
 C     70  65  16     2.893752690617   113.65458935   290.92033008
 C     75  73  24     2.775391184345   112.60985240   177.24292777
 C     75  73  24     3.052632455987   107.85485119    64.03885524
 H     22  14   1     1.889693186259   146.76939061   353.85970079
 H     51  22  14     1.889704090137    60.45775671   115.00112029
 H     26  10   5     1.889646707063   110.04643817   234.68383903
 H     54  51  22     1.889721504087   108.55941059   268.57981525
 H     51  22  14     1.889679882308   145.93833368   196.08757325
 H     53  52  25     1.889674864956   109.50523975   306.45297562
 H     25   7   2     1.889806681781   116.41711438   161.35887996
 H     31  26  10     1.889697135851    93.06360460   357.65681179
 H     25   7   2     1.889771562391    29.35759659   244.16761551
 H     32   3   1     1.889757144073   105.73961022    33.31178868
 H     31  26  10     1.889747005831    89.23072254   107.08671332
 H     32   3   1     1.889745276750    46.14918664   135.36304356
 H     34  20   4     1.889593177562   111.39589230   348.89665468
 H     35  33  31     1.889752873357   109.50187105   268.84482984
 H     36   7   2     1.889576641222   110.51747436    22.77682770
 H     27  19   5     1.889706868065   112.29981482   298.44021113
 H     32   3   1     1.889783297272   142.99841296   194.84790507
 H     31  26  10     1.889772601716   142.76122605   229.25029449
 H     33  31  26     1.889667976705   108.24479980   240.00343458
 H     39   9   6     1.889767565713   110.15645773   317.47120362
 H     41  36   7     1.889701142128   109.49606039   261.89429785
 H     35  33  31     1.889842357953   109.49562760    28.83749604
 H     35  33  31     1.889627978997   109.50275443   148.83795743
 H     21   8   3     1.889672568875   149.12867110   301.78630679
 H     43  38  34     1.889879356153   109.50010373    54.23831787
 H     38  34  20     1.889661674263   110.48579793   303.36424835
 H     20   4   1     1.889663866419   147.06412361   113.57244849
 H     46  44  21     1.889661608121   110.22548569    58.98889068
 H     41  36   7     1.889664660130   109.50104018    21.89521480
 H     45  39   9     1.889808306876   109.48362060   187.66482854
 H     41  36   7     1.889610025581   109.49536559   141.89471160
 H     43  38  34     1.889581280861   109.50154270   174.24125745
 H     47  45  39     1.889713217599   109.50228210    44.97096942
 H     43  38  34     1.889676801977   109.50092633   294.24145777
 H     48  46  44     1.889716552985   109.49697325   278.87229372
 H     49  46  44     1.889602409501   109.50543791    91.82302139
 H     44  21   8     1.889654596984   110.09855478    50.28583120
 H     50  45  39     1.889818454236   109.49784694   283.84914467
 H     47  45  39     1.889858372329   109.49733150   164.97120374
 H     48  46  44     1.889586799277   109.50117400   158.87290971
 H     47  45  39     1.889656978128   109.50197953   284.96324664
 H     48  46  44     1.889783174444   109.49555778    38.86561610
 H     49  46  44     1.889761140774   109.50074890   211.82920284
 H     50  45  39     1.889732644017   109.49209280    43.84765721
 H     49  46  44     1.889763380056   109.50194263   331.82094143
 H     50  45  39     1.889630086150   109.49998294   163.84823188
 H     55  54  51     1.889606189197   109.50041672   100.32791101
 H     25   7   2     1.889645639322   126.18257836   306.83954736
 H     53  52  25     1.889750048254   109.49729458   186.44251055
 H     19   5   2     1.889786915985   142.48087160    85.50205706
 H     56   1   2     1.889735365211   110.77964513    21.12525466
 H     53  52  25     1.889884637502   109.49637384    66.44810891
 H     51  22  14     1.889752561556   104.46677277    10.59121806
 H     52  25   7     1.889621496888   111.94220256   251.90292213
 H     55  54  51     1.889699309068   109.50278296   340.32419540
 H     55  54  51     1.889685825633   109.49526984   220.32611551
 H     61  56   1     1.889886857743   109.49886855   319.93774319
 H     63  62  23     1.889840043179    84.99237867   224.44405906
 H     62  23  13     1.889672786199   109.90036979    15.40905373
 H     63  62  23     1.889656987577    96.30495025   115.39320267
 H     57  22  14     1.889753147363   109.02022729    54.85106294
 H     65  16  11     1.889801192353   111.80507243   333.49566883
 H     61  56   1     1.889653916657   109.50546983   199.93513944
 H     61  56   1     1.889708096399   109.49669372    79.93446216
 H     63  62  23     1.889806199921   143.11976004   340.54046145
 H     67  18  15     1.889736121097   111.90691609    49.25827135
 H     71  70  65     1.889826107238   109.49947177   291.16936501
 H     24  17  12     1.889776381071   147.04138228    24.32419911
 H     70  65  16     1.889715022299   106.42370202    47.82706523
 H     72  66  63     1.889785101905   109.49913093    69.62040949
 H     66  63  62     1.889795580081   110.36103227   122.27084048
 H     23  13  10     1.889758655828   145.81100289   231.08962817
 H     75  73  24     1.889751238766   110.96846675   303.64250143
 H     71  70  65     1.889763408402   109.50315970    51.16378224
 H     74  67  18     1.889634867394   109.50144672   195.11360645
 H     72  66  63     1.889867584077   109.49591537   309.62759428
 H     71  70  65     1.889695009876   109.50310807   171.17382882
 H     72  66  63     1.889617632180   109.50598244   189.62966656
 H     77  75  73     1.889806077094   109.49914483    82.80383031
 H     74  67  18     1.889889928284   109.49856620    75.11938225
 H     76  70  65     1.889799510562   109.49476153    26.95968654
 H     78  75  73     1.889677397256   109.50394675   270.24911610
 H     74  67  18     1.889665529432   109.50315451   315.12004719
 H     73  24  17     1.889880669406   109.76461795   306.33110937
 H     76  70  65     1.889735450248   109.50254535   146.95665680
 H     77  75  73     1.889578096426   109.50501728   202.81042026
 H     76  70  65     1.889712962484   109.50406498   266.95914944
 H     77  75  73     1.889778818751   109.49706409   322.80912527
 H     78  75  73     1.889676272839   109.49886845   150.24324204
 H     78  75  73     1.889696757900   109.49831590    30.24743223

---------------------
BASIS SET INFORMATION
---------------------
There are 4 groups of distinct atoms

 Group   1 Type O   : 21s9p4d2f1g contracted to 6s5p4d2f1g pattern {981111/51111/1111/11/1}
 Group   2 Type N   : 21s9p4d2f1g contracted to 6s5p4d2f1g pattern {981111/51111/1111/11/1}
 Group   3 Type C   : 22s9p4d2f1g contracted to 6s5p4d2f1g pattern {991111/51111/1111/11/1}
 Group   4 Type H   : 9s4p2d1f contracted to 5s4p2d1f pattern {51111/1111/11/1}

Atom   0O    basis set group =>   1
Atom   1O    basis set group =>   1
Atom   2O    basis set group =>   1
Atom   3O    basis set group =>   1
Atom   4O    basis set group =>   1
Atom   5O    basis set group =>   1
Atom   6O    basis set group =>   1
Atom   7O    basis set group =>   1
Atom   8O    basis set group =>   1
Atom   9O    basis set group =>   1
Atom  10O    basis set group =>   1
Atom  11O    basis set group =>   1
Atom  12O    basis set group =>   1
Atom  13O    basis set group =>   1
Atom  14O    basis set group =>   1
Atom  15O    basis set group =>   1
Atom  16O    basis set group =>   1
Atom  17O    basis set group =>   1
Atom  18N    basis set group =>   2
Atom  19N    basis set group =>   2
Atom  20N    basis set group =>   2
Atom  21N    basis set group =>   2
Atom  22N    basis set group =>   2
Atom  23N    basis set group =>   2
Atom  24C    basis set group =>   3
Atom  25C    basis set group =>   3
Atom  26C    basis set group =>   3
Atom  27C    basis set group =>   3
Atom  28C    basis set group =>   3
Atom  29C    basis set group =>   3
Atom  30C    basis set group =>   3
Atom  31C    basis set group =>   3
Atom  32C    basis set group =>   3
Atom  33C    basis set group =>   3
Atom  34C    basis set group =>   3
Atom  35C    basis set group =>   3
Atom  36C    basis set group =>   3
Atom  37C    basis set group =>   3
Atom  38C    basis set group =>   3
Atom  39C    basis set group =>   3
Atom  40C    basis set group =>   3
Atom  41C    basis set group =>   3
Atom  42C    basis set group =>   3
Atom  43C    basis set group =>   3
Atom  44C    basis set group =>   3
Atom  45C    basis set group =>   3
Atom  46C    basis set group =>   3
Atom  47C    basis set group =>   3
Atom  48C    basis set group =>   3
Atom  49C    basis set group =>   3
Atom  50C    basis set group =>   3
Atom  51C    basis set group =>   3
Atom  52C    basis set group =>   3
Atom  53C    basis set group =>   3
Atom  54C    basis set group =>   3
Atom  55C    basis set group =>   3
Atom  56C    basis set group =>   3
Atom  57C    basis set group =>   3
Atom  58C    basis set group =>   3
Atom  59C    basis set group =>   3
Atom  60C    basis set group =>   3
Atom  61C    basis set group =>   3
Atom  62C    basis set group =>   3
Atom  63C    basis set group =>   3
Atom  64C    basis set group =>   3
Atom  65C    basis set group =>   3
Atom  66C    basis set group =>   3
Atom  67C    basis set group =>   3
Atom  68C    basis set group =>   3
Atom  69C    basis set group =>   3
Atom  70C    basis set group =>   3
Atom  71C    basis set group =>   3
Atom  72C    basis set group =>   3
Atom  73C    basis set group =>   3
Atom  74C    basis set group =>   3
Atom  75C    basis set group =>   3
Atom  76C    basis set group =>   3
Atom  77C    basis set group =>   3
Atom  78H    basis set group =>   4
Atom  79H    basis set group =>   4
Atom  80H    basis set group =>   4
Atom  81H    basis set group =>   4
Atom  82H    basis set group =>   4
Atom  83H    basis set group =>   4
Atom  84H    basis set group =>   4
Atom  85H    basis set group =>   4
Atom  86H    basis set group =>   4
Atom  87H    basis set group =>   4
Atom  88H    basis set group =>   4
Atom  89H    basis set group =>   4
Atom  90H    basis set group =>   4
Atom  91H    basis set group =>   4
Atom  92H    basis set group =>   4
Atom  93H    basis set group =>   4
Atom  94H    basis set group =>   4
Atom  95H    basis set group =>   4
Atom  96H    basis set group =>   4
Atom  97H    basis set group =>   4
Atom  98H    basis set group =>   4
Atom  99H    basis set group =>   4
Atom 100H    basis set group =>   4
Atom 101H    basis set group =>   4
Atom 102H    basis set group =>   4
Atom 103H    basis set group =>   4
Atom 104H    basis set group =>   4
Atom 105H    basis set group =>   4
Atom 106H    basis set group =>   4
Atom 107H    basis set group =>   4
Atom 108H    basis set group =>   4
Atom 109H    basis set group =>   4
Atom 110H    basis set group =>   4
Atom 111H    basis set group =>   4
Atom 112H    basis set group =>   4
Atom 113H    basis set group =>   4
Atom 114H    basis set group =>   4
Atom 115H    basis set group =>   4
Atom 116H    basis set group =>   4
Atom 117H    basis set group =>   4
Atom 118H    basis set group =>   4
Atom 119H    basis set group =>   4
Atom 120H    basis set group =>   4
Atom 121H    basis set group =>   4
Atom 122H    basis set group =>   4
Atom 123H    basis set group =>   4
Atom 124H    basis set group =>   4
Atom 125H    basis set group =>   4
Atom 126H    basis set group =>   4
Atom 127H    basis set group =>   4
Atom 128H    basis set group =>   4
Atom 129H    basis set group =>   4
Atom 130H    basis set group =>   4
Atom 131H    basis set group =>   4
Atom 132H    basis set group =>   4
Atom 133H    basis set group =>   4
Atom 134H    basis set group =>   4
Atom 135H    basis set group =>   4
Atom 136H    basis set group =>   4
Atom 137H    basis set group =>   4
Atom 138H    basis set group =>   4
Atom 139H    basis set group =>   4
Atom 140H    basis set group =>   4
Atom 141H    basis set group =>   4
Atom 142H    basis set group =>   4
Atom 143H    basis set group =>   4
Atom 144H    basis set group =>   4
Atom 145H    basis set group =>   4
Atom 146H    basis set group =>   4
Atom 147H    basis set group =>   4
Atom 148H    basis set group =>   4
Atom 149H    basis set group =>   4
Atom 150H    basis set group =>   4
Atom 151H    basis set group =>   4
Atom 152H    basis set group =>   4
Atom 153H    basis set group =>   4
Atom 154H    basis set group =>   4
Atom 155H    basis set group =>   4
Atom 156H    basis set group =>   4
Atom 157H    basis set group =>   4
Atom 158H    basis set group =>   4
Atom 159H    basis set group =>   4
Atom 160H    basis set group =>   4
Atom 161H    basis set group =>   4
Atom 162H    basis set group =>   4
Atom 163H    basis set group =>   4
Atom 164H    basis set group =>   4
Atom 165H    basis set group =>   4
Atom 166H    basis set group =>   4
Atom 167H    basis set group =>   4


           ************************************************************
           *        Program running with 128 parallel MPI-processes   *
           *              working on a shared directory               *
           ************************************************************
------------------------------------------------------------------------------
                           ORCA GTO INTEGRAL CALCULATION
------------------------------------------------------------------------------
------------------------------------------------------------------------------
                   ___                                                        
                  /   \      - P O W E R E D   B Y -                         
                 /     \                                                     
                 |  |  |   _    _      __       _____    __    __             
                 |  |  |  | |  | |    /  \     |  _  \  |  |  /  |          
                  \  \/   | |  | |   /    \    | | | |  |  | /  /          
                 / \  \   | |__| |  /  /\  \   | |_| |  |  |/  /          
                |  |  |   |  __  | /  /__\  \  |    /   |      \           
                |  |  |   | |  | | |   __   |  |    \   |  |\   \          
                \     /   | |  | | |  |  |  |  | |\  \  |  | \   \       
                 \___/    |_|  |_| |__|  |__|  |_| \__\ |__|  \__/        
                                                                              
                      - O R C A' S   B I G   F R I E N D -                    
                                      &                                       
                       - I N T E G R A L  F E E D E R -                       
                                                                              
 v1 FN, 2020, v2 2021                                                         
------------------------------------------------------------------------------


Reading SHARK input file pc3.SHARKINP.tmp ... ok
----------------------
SHARK INTEGRAL PACKAGE
----------------------

Number of atoms                             ...    168
Number of basis functions                   ...   8052
Number of shells                            ...   2484
Maximum angular momentum                    ...      4
Integral batch strategy                     ... SHARK/LIBINT Hybrid
RI-J (if used) integral strategy            ... SPLIT-RIJ (Revised 2003 algorithm where possible)
Printlevel                                  ...      1
Contraction scheme used                     ... SEGMENTED contraction
Coulomb Range Separation                    ... NOT USED
Exchange Range Separation                   ... NOT USED
Finite Nucleus Model                        ... NOT USED
Auxiliary Coulomb fitting basis             ... NOT available
Auxiliary J/K fitting basis                 ... NOT available
Auxiliary Correlation fitting basis         ... NOT available
Auxiliary 'external' fitting basis          ... NOT available
Integral threshold                          ...     1.000000e-12
Primitive cut-off                           ...     1.000000e-14
Primitive pair pre-selection threshold      ...     1.000000e-14

Calculating pre-screening integrals         ... done (  0.6 sec) Dimension = 2484
Organizing shell pair data                  ... done ( 14.2 sec)
Shell pair information
Total number of shell pairs                 ...   3086370
Shell pairs after pre-screening             ...   1293886
Total number of primitive shell pairs       ...   9601494
Primitive shell pairs kept                  ...   2344874
          la=0 lb=0: 212406 shell pairs
          la=1 lb=0: 340476 shell pairs
          la=1 lb=1: 137018 shell pairs
          la=2 lb=0: 183523 shell pairs
          la=2 lb=1: 146086 shell pairs
          la=2 lb=2:  34838 shell pairs
          la=3 lb=0:  81477 shell pairs
          la=3 lb=1:  64500 shell pairs
          la=3 lb=2:  27696 shell pairs
          la=3 lb=3:   5204 shell pairs
          la=4 lb=0:  26686 shell pairs
          la=4 lb=1:  21102 shell pairs
          la=4 lb=2:   9075 shell pairs
          la=4 lb=3:   3248 shell pairs
          la=4 lb=4:    551 shell pairs

Calculating one electron integrals          ... done (  2.3 sec)
Calculating Nuclear repulsion               ... done (  0.0 sec) ENN=  16685.794333974354 Eh

SHARK setup successfully completed in  37.1 seconds

Maximum memory used throughout the entire GTOINT-calculation: 2413.2 MB


           ************************************************************
           *        Program running with 128 parallel MPI-processes   *
           *              working on a shared directory               *
           ************************************************************
-------------------------------------------------------------------------------
                                 ORCA SCF
-------------------------------------------------------------------------------

------------
SCF SETTINGS
------------
Hamiltonian:
 Ab initio Hamiltonian  Method          .... Hartree-Fock(GTOs)


General Settings:
 Integral files         IntName         .... pc3
 Hartree-Fock type      HFTyp           .... RHF
 Total Charge           Charge          ....    0
 Multiplicity           Mult            ....    1
 Number of Electrons    NEL             ....  600
 Basis Dimension        Dim             .... 8052
 Nuclear Repulsion      ENuc            ....  16685.7943339744 Eh

Convergence Acceleration:
 DIIS                   CNVDIIS         .... on
   Start iteration      DIISMaxIt       ....    12
   Startup error        DIISStart       ....  0.200000
   # of expansion vecs  DIISMaxEq       ....     5
   Bias factor          DIISBfac        ....   1.050
   Max. coefficient     DIISMaxC        ....  10.000
 Trust-Rad. Augm. Hess. CNVTRAH         .... auto
   Auto Start mean grad. ratio tolernc. ....  1.125000
   Auto Start start iteration           ....    20
   Auto Start num. interpolation iter.  ....    10
   Max. Number of Micro iterations      ....    16
   Max. Number of Macro iterations      .... Maxiter - #DIIS iter
   Number of Davidson start vectors     ....     2
   Converg. threshold I  (grad. norm)   ....   2.000e-06
   Converg. threshold II (energy diff.) ....   1.000e-09
   Grad. Scal. Fac. for Micro threshold ....   0.100
   Minimum threshold for Micro iter.    ....   0.010
   NR start threshold (gradient norm)   ....   0.001
   Initial trust radius                 ....   0.400
   Minimum AH scaling param. (alpha)    ....   1.000
   Maximum AH scaling param. (alpha)    .... 1000.000
   Orbital update algorithm             .... Taylor
   White noise on init. David. guess    .... on
   Maximum white noise                  ....   0.010
   Quad. conv. algorithm                .... NR
 SOSCF                  CNVSOSCF        .... on
   Start iteration      SOSCFMaxIt      ....   150
   Startup grad/error   SOSCFStart      ....  0.003300
 Level Shifting         CNVShift        .... on
   Level shift para.    LevelShift      ....    0.2500
   Turn off err/grad.   ShiftErr        ....    0.0010
 Zerner damping         CNVZerner       .... off
 Static damping         CNVDamp         .... on
   Fraction old density DampFac         ....    0.7000
   Max. Damping (<1)    DampMax         ....    0.9800
   Min. Damping (>=0)   DampMin         ....    0.0000
   Turn off err/grad.   DampErr         ....    0.1000
 Fernandez-Rico         CNVRico         .... off

SCF Procedure:
 Maximum # iterations   MaxIter         ....   120
 SCF integral mode      SCFMode         .... Direct
   Integral package                     .... SHARK and LIBINT hybrid scheme
 Reset frequency        DirectResetFreq ....    20
 Integral Threshold     Thresh          ....  1.000e-12 Eh
 Primitive CutOff       TCut            ....  1.000e-14 Eh

Convergence Tolerance:
 Convergence Check Mode ConvCheckMode   .... Total+1el-Energy
 Convergence forced     ConvForced      .... 0
 Energy Change          TolE            ....  1.000e-09 Eh
 1-El. energy change                    ....  1.000e-06 Eh
 Orbital Gradient       TolG            ....  2.000e-06
 Orbital Rotation angle TolX            ....  2.000e-06
 DIIS Error             TolErr          ....  1.000e-08


Diagonalization of the overlap matrix:
Smallest eigenvalue                        ... 3.774e-07
Time for diagonalization                   ...    5.673 sec
Threshold for overlap eigenvalues          ... 1.000e-08
Number of eigenvalues below threshold      ... 0
Time for construction of square roots      ...    8.683 sec
Total time needed                          ...   14.502 sec

Time for model grid setup =    1.279 sec

------------------------------
INITIAL GUESS: MODEL POTENTIAL
------------------------------
Loading Hartree-Fock densities                     ... done
Calculating cut-offs                               ... done
Initializing the effective Hamiltonian             ... done
Setting up the integral package (SHARK)            ... done
Starting the Coulomb interaction                   ... done (   5.6 sec)
Reading the grid                                   ... done
Mapping shells                                     ... done
Starting the XC term evaluation                    ... done (   1.2 sec)
Transforming the Hamiltonian                       ... done (   4.3 sec)
Diagonalizing the Hamiltonian                      ... done (   6.9 sec)
Back transforming the eigenvectors                 ... done (   2.1 sec)
Now organizing SCF variables                       ... done
                      ------------------
                      INITIAL GUESS DONE (  22.4 sec)
                      ------------------

Warning (ORCA_SCF): Not enough memory available!
                    Memory available for SCF calculation:         5000 MB
                    Memory needed (estimated)           :         5209 MB


--------------
SCF ITERATIONS
--------------
ITER       Energy         Delta-E        Max-DP      RMS-DP      [F,P]     Damp
               ***  Starting incremental Fock matrix formation  ***
  0  -3768.6589327021   0.000000000000 0.20892000  0.00017469  0.3487044 0.7000
  1  -3770.1071442708  -1.448211568662 0.15555200  0.00013406  0.2241931 0.7000
                               ***Turning on DIIS***
  2  -3770.9830331377  -0.875888866929 0.11188806  0.00009522  0.1669610 0.7000
  3  -3779.2429830071  -8.259949869396 0.07969159  0.00007020  0.1244086 0.7000
  4  -3778.5166801230   0.726302884137 0.18369683  0.00017379  0.0880654 0.0000
  5  -3772.9961602929   5.520519830054 0.01151440  0.00001756  0.0066848 0.0000
  6  -3772.8101368002   0.186023492734 0.00269337  0.00000745  0.0033623 0.0000
                      *** Initiating the SOSCF procedure ***
                           *** Shutting down DIIS ***
                      *** Re-Reading the Fockian *** 
                      *** Removing any level shift *** 
ITER      Energy       Delta-E        Grad      Rot      Max-DP    RMS-DP
  7  -3772.79340479   0.0167320121  0.000771  0.000771  0.001921  0.000004
               *** Restarting incremental Fock matrix formation ***
  8  -3772.83350045  -0.0400956601  0.000325  0.000584  0.000537  0.000002
  9  -3772.83355204  -0.0000515941  0.000185  0.000772  0.000643  0.000002
 10  -3772.83357113  -0.0000190881  0.000045  0.000055  0.000292  0.000001
 11  -3772.83357322  -0.0000020916  0.000017  0.000021  0.000081  0.000000
 12  -3772.83357352  -0.0000002976  0.000006  0.000012  0.000113  0.000000
 13  -3772.83357357  -0.0000000490  0.000002  0.000010  0.000238  0.000001
 14  -3772.83357355   0.0000000137  0.000001  0.000001  0.000210  0.000001
                  ***Gradient check signals convergence***
              ***Rediagonalizing the Fockian in SOSCF/NRSCF***

               *****************************************************
               *                     SUCCESS                       *
               *           SCF CONVERGED AFTER  15 CYCLES          *
               *****************************************************


----------------
TOTAL SCF ENERGY
----------------

Total Energy       :        -3772.83357352 Eh         -102664.02087 eV

Components:
Nuclear Repulsion  :        16685.79433397 Eh          454043.54696 eV
Electronic Energy  :       -20458.62790749 Eh         -556707.56783 eV
One Electron Energy:       -38447.16300538 Eh        -1046200.49318 eV
Two Electron Energy:        17988.53509789 Eh          489492.92535 eV

Virial components:
Potential Energy   :        -7555.46041525 Eh         -205594.53012 eV
Kinetic Energy     :         3782.62684173 Eh          102930.50925 eV
Virial Ratio       :            1.99741099


---------------
SCF CONVERGENCE
---------------

  Last Energy change         ...    3.9483e-08  Tolerance :   1.0000e-09
  Last MAX-Density change    ...    3.3843e-04  Tolerance :   1.0000e-08
  Last RMS-Density change    ...    8.7285e-07  Tolerance :   1.0000e-09
  Last Orbital Gradient      ...    2.3623e-07  Tolerance :   2.0000e-06
  Last Orbital Rotation      ...    7.7052e-07  Tolerance :   2.0000e-06

             **** THE GBW FILE WAS UPDATED (pc3.gbw) ****
             **** DENSITY pc3.scfp WAS UPDATED ****
             **** ENERGY FILE WAS UPDATED (pc3.en.tmp) ****
             **** THE GBW FILE WAS UPDATED (pc3.gbw) ****
             **** DENSITY pc3.scfp WAS UPDATED ****
----------------
ORBITAL ENERGIES
----------------

  NO   OCC          E(Eh)            E(eV) 
   0   2.0000     -20.615851      -560.9858 
   1   2.0000     -20.613931      -560.9336 
   2   2.0000     -20.604821      -560.6857 
   3   2.0000     -20.600948      -560.5803 
   4   2.0000     -20.600522      -560.5687 
   5   2.0000     -20.597181      -560.4778 
   6   2.0000     -20.555214      -559.3358 
   7   2.0000     -20.545397      -559.0687 
   8   2.0000     -20.545380      -559.0682 
   9   2.0000     -20.543556      -559.0186 
  10   2.0000     -20.538649      -558.8850 
  11   2.0000     -20.532766      -558.7250 
  12   2.0000     -20.530337      -558.6589 
  13   2.0000     -20.523482      -558.4723 
  14   2.0000     -20.517066      -558.2978 
  15   2.0000     -20.515728      -558.2613 
  16   2.0000     -20.515184      -558.2465 
  17   2.0000     -20.510476      -558.1184 
  18   2.0000     -15.587729      -424.1637 
  19   2.0000     -15.584105      -424.0650 
  20   2.0000     -15.580403      -423.9643 
  21   2.0000     -15.576790      -423.8660 
  22   2.0000     -15.576404      -423.8555 
  23   2.0000     -15.569455      -423.6664 
  24   2.0000     -11.388071      -309.8852 
  25   2.0000     -11.379126      -309.6418 
  26   2.0000     -11.376243      -309.5633 
  27   2.0000     -11.373554      -309.4901 
  28   2.0000     -11.373296      -309.4831 
  29   2.0000     -11.373011      -309.4754 
  30   2.0000     -11.370002      -309.3935 
  31   2.0000     -11.360631      -309.1385 
  32   2.0000     -11.358881      -309.0909 
  33   2.0000     -11.350667      -308.8673 
  34   2.0000     -11.345990      -308.7401 
  35   2.0000     -11.343379      -308.6690 
  36   2.0000     -11.305681      -307.6432 
  37   2.0000     -11.299405      -307.4724 
  38   2.0000     -11.297781      -307.4283 
  39   2.0000     -11.293355      -307.3078 
  40   2.0000     -11.289394      -307.2000 
  41   2.0000     -11.285665      -307.0986 
  42   2.0000     -11.279733      -306.9371 
  43   2.0000     -11.272580      -306.7425 
  44   2.0000     -11.270059      -306.6739 
  45   2.0000     -11.267514      -306.6046 
  46   2.0000     -11.263637      -306.4991 
  47   2.0000     -11.263120      -306.4851 
  48   2.0000     -11.227590      -305.5183 
  49   2.0000     -11.227465      -305.5148 
  50   2.0000     -11.226186      -305.4801 
  51   2.0000     -11.224320      -305.4293 
  52   2.0000     -11.223570      -305.4089 
  53   2.0000     -11.223319      -305.4020 
  54   2.0000     -11.215247      -305.1824 
  55   2.0000     -11.214992      -305.1755 
  56   2.0000     -11.207955      -304.9840 
  57   2.0000     -11.205677      -304.9220 
  58   2.0000     -11.191592      -304.5387 
  59   2.0000     -11.187910      -304.4385 
  60   2.0000     -11.185092      -304.3618 
  61   2.0000     -11.184779      -304.3533 
  62   2.0000     -11.183019      -304.3054 
  63   2.0000     -11.181642      -304.2679 
  64   2.0000     -11.179551      -304.2111 
  65   2.0000     -11.179493      -304.2095 
  66   2.0000     -11.178904      -304.1935 
  67   2.0000     -11.178227      -304.1750 
  68   2.0000     -11.177740      -304.1618 
  69   2.0000     -11.175251      -304.0940 
  70   2.0000     -11.173654      -304.0506 
  71   2.0000     -11.172959      -304.0317 
  72   2.0000     -11.172908      -304.0303 
  73   2.0000     -11.170622      -303.9681 
  74   2.0000     -11.170210      -303.9569 
  75   2.0000     -11.168647      -303.9143 
  76   2.0000     -11.168432      -303.9085 
  77   2.0000     -11.167545      -303.8844 
  78   2.0000      -1.495262       -40.6882 
  79   2.0000      -1.489705       -40.5369 
  80   2.0000      -1.480134       -40.2765 
  81   2.0000      -1.476037       -40.1650 
  82   2.0000      -1.462268       -39.7903 
  83   2.0000      -1.450344       -39.4659 
  84   2.0000      -1.403452       -38.1899 
  85   2.0000      -1.386939       -37.7405 
  86   2.0000      -1.384506       -37.6743 
  87   2.0000      -1.379218       -37.5304 
  88   2.0000      -1.377449       -37.4823 
  89   2.0000      -1.374885       -37.4125 
  90   2.0000      -1.374155       -37.3927 
  91   2.0000      -1.366118       -37.1740 
  92   2.0000      -1.365006       -37.1437 
  93   2.0000      -1.357495       -36.9393 
  94   2.0000      -1.353119       -36.8202 
  95   2.0000      -1.351676       -36.7810 
  96   2.0000      -1.253474       -34.1088 
  97   2.0000      -1.246513       -33.9193 
  98   2.0000      -1.240247       -33.7488 
  99   2.0000      -1.236977       -33.6599 
 100   2.0000      -1.235577       -33.6218 
 101   2.0000      -1.220960       -33.2240 
 102   2.0000      -1.120328       -30.4857 
 103   2.0000      -1.117261       -30.4022 
 104   2.0000      -1.115855       -30.3640 
 105   2.0000      -1.105276       -30.0761 
 106   2.0000      -1.102702       -30.0061 
 107   2.0000      -1.093024       -29.7427 
 108   2.0000      -1.092350       -29.7244 
 109   2.0000      -1.092106       -29.7177 
 110   2.0000      -1.069936       -29.1144 
 111   2.0000      -1.068252       -29.0686 
 112   2.0000      -1.065884       -29.0042 
 113   2.0000      -1.057832       -28.7851 
 114   2.0000      -1.022139       -27.8138 
 115   2.0000      -1.020664       -27.7737 
 116   2.0000      -1.018319       -27.7099 
 117   2.0000      -0.992683       -27.0123 
 118   2.0000      -0.984235       -26.7824 
 119   2.0000      -0.982453       -26.7339 
 120   2.0000      -0.970289       -26.4029 
 121   2.0000      -0.966895       -26.3106 
 122   2.0000      -0.966715       -26.3057 
 123   2.0000      -0.964043       -26.2329 
 124   2.0000      -0.962157       -26.1816 
 125   2.0000      -0.961483       -26.1633 
 126   2.0000      -0.960229       -26.1291 
 127   2.0000      -0.959604       -26.1122 
 128   2.0000      -0.957432       -26.0530 
 129   2.0000      -0.957295       -26.0493 
 130   2.0000      -0.955689       -26.0056 
 131   2.0000      -0.946828       -25.7645 
 132   2.0000      -0.916755       -24.9462 
 133   2.0000      -0.911587       -24.8055 
 134   2.0000      -0.904584       -24.6150 
 135   2.0000      -0.855700       -23.2848 
 136   2.0000      -0.852283       -23.1918 
 137   2.0000      -0.846319       -23.0295 
 138   2.0000      -0.842219       -22.9179 
 139   2.0000      -0.839377       -22.8406 
 140   2.0000      -0.836956       -22.7747 
 141   2.0000      -0.828339       -22.5403 
 142   2.0000      -0.822034       -22.3687 
 143   2.0000      -0.818300       -22.2671 
 144   2.0000      -0.810121       -22.0445 
 145   2.0000      -0.806828       -21.9549 
 146   2.0000      -0.804856       -21.9012 
 147   2.0000      -0.802633       -21.8408 
 148   2.0000      -0.797475       -21.7004 
 149   2.0000      -0.794483       -21.6190 
 150   2.0000      -0.789778       -21.4910 
 151   2.0000      -0.788732       -21.4625 
 152   2.0000      -0.783993       -21.3335 
 153   2.0000      -0.781173       -21.2568 
 154   2.0000      -0.776569       -21.1315 
 155   2.0000      -0.772488       -21.0205 
 156   2.0000      -0.748049       -20.3555 
 157   2.0000      -0.745642       -20.2900 
 158   2.0000      -0.744870       -20.2689 
 159   2.0000      -0.742363       -20.2007 
 160   2.0000      -0.740573       -20.1520 
 161   2.0000      -0.734656       -19.9910 
 162   2.0000      -0.728711       -19.8292 
 163   2.0000      -0.719239       -19.5715 
 164   2.0000      -0.717668       -19.5287 
 165   2.0000      -0.715870       -19.4798 
 166   2.0000      -0.705808       -19.2060 
 167   2.0000      -0.702730       -19.1222 
 168   2.0000      -0.698089       -18.9960 
 169   2.0000      -0.694535       -18.8993 
 170   2.0000      -0.690800       -18.7976 
 171   2.0000      -0.685886       -18.6639 
 172   2.0000      -0.684683       -18.6312 
 173   2.0000      -0.679089       -18.4789 
 174   2.0000      -0.674821       -18.3628 
 175   2.0000      -0.671404       -18.2698 
 176   2.0000      -0.666977       -18.1494 
 177   2.0000      -0.665043       -18.0967 
 178   2.0000      -0.662207       -18.0196 
 179   2.0000      -0.657341       -17.8872 
[...]
  4 O      8.6871     8.0000    -0.6871     1.6055     1.6055    -0.0000
  5 O      8.4938     8.0000    -0.4938     2.0028     2.0028     0.0000
  6 O      8.5778     8.0000    -0.5778     1.9459     1.9459    -0.0000
  7 O      8.7217     8.0000    -0.7217     1.6019     1.6019    -0.0000
  8 O      8.5932     8.0000    -0.5932     2.1501     2.1501     0.0000
  9 O      8.5782     8.0000    -0.5782     2.1632     2.1632    -0.0000
 10 O      8.5063     8.0000    -0.5063     1.9314     1.9314    -0.0000
 11 O      8.5305     8.0000    -0.5305     1.8354     1.8354     0.0000
 12 O      8.5843     8.0000    -0.5843     1.8309     1.8309    -0.0000
 13 O      8.6344     8.0000    -0.6344     1.5633     1.5633     0.0000
 14 O      8.5333     8.0000    -0.5333     1.8645     1.8645    -0.0000
 15 O      8.5566     8.0000    -0.5566     2.0077     2.0077    -0.0000
 16 O      8.6733     8.0000    -0.6733     1.6924     1.6924     0.0000
 17 O      8.5222     8.0000    -0.5222     1.9010     1.9010    -0.0000
 18 N      7.3502     7.0000    -0.3502     3.1235     3.1235    -0.0000
 19 N      7.3833     7.0000    -0.3833     2.9647     2.9647    -0.0000
 20 N      7.2888     7.0000    -0.2888     3.0875     3.0875    -0.0000
 21 N      7.2578     7.0000    -0.2578     2.9626     2.9626    -0.0000
 22 N      7.3188     7.0000    -0.3188     3.0070     3.0070    -0.0000
 23 N      7.3711     7.0000    -0.3711     3.1051     3.1051    -0.0000
 24 C      6.4122     6.0000    -0.4122     3.8578     3.8578    -0.0000
 25 C      5.7135     6.0000     0.2865     3.6982     3.6982    -0.0000
 26 C      5.7087     6.0000     0.2913     3.5885     3.5885    -0.0000
 27 C      5.6422     6.0000     0.3578     4.1311     4.1311    -0.0000
 28 C      5.5358     6.0000     0.4642     3.9351     3.9351     0.0000
 29 C      5.3802     6.0000     0.6198     3.4714     3.4714    -0.0000
 30 C      6.3611     6.0000    -0.3611     3.7840     3.7840    -0.0000
 31 C      6.3785     6.0000    -0.3785     3.8159     3.8159    -0.0000
 32 C      5.9931     6.0000     0.0069     3.6641     3.6641    -0.0000
 33 C      5.7155     6.0000     0.2845     3.4926     3.4926     0.0000
 34 C      6.4258     6.0000    -0.4258     3.8189     3.8189    -0.0000
 35 C      5.6758     6.0000     0.3242     3.7522     3.7522     0.0000
 36 C      5.5042     6.0000     0.4958     3.8878     3.8878     0.0000
 37 C      6.0768     6.0000    -0.0768     3.6675     3.6675    -0.0000
 38 C      5.7214     6.0000     0.2786     3.7406     3.7406    -0.0000
 39 C      5.5333     6.0000     0.4667     3.9730     3.9730     0.0000
 40 C      6.3437     6.0000    -0.3437     3.8072     3.8072    -0.0000
 41 C      5.5370     6.0000     0.4630     3.9695     3.9695     0.0000
 42 C      6.3463     6.0000    -0.3463     3.8347     3.8347    -0.0000
 43 C      5.7471     6.0000     0.2529     3.7224     3.7224    -0.0000
 44 C      6.1048     6.0000    -0.1048     3.6822     3.6822    -0.0000
 45 C      6.0642     6.0000    -0.0642     3.5136     3.5136     0.0000
 46 C      6.3556     6.0000    -0.3556     3.8195     3.8195    -0.0000
 47 C      6.4603     6.0000    -0.4603     3.8405     3.8405    -0.0000
 48 C      6.3624     6.0000    -0.3624     3.8033     3.8033     0.0000
 49 C      6.3640     6.0000    -0.3640     3.8047     3.8047    -0.0000
 50 C      6.3154     6.0000    -0.3154     3.8199     3.8199    -0.0000
 51 C      6.0909     6.0000    -0.0909     3.6441     3.6441     0.0000
 52 C      6.3204     6.0000    -0.3204     3.7732     3.7732     0.0000
 53 C      6.1169     6.0000    -0.1169     3.6035     3.6035    -0.0000
 54 C      6.4162     6.0000    -0.4162     3.8340     3.8340    -0.0000
 55 C      5.6959     6.0000     0.3041     3.7889     3.7889    -0.0000
 56 C      5.7340     6.0000     0.2660     3.6750     3.6750    -0.0000
 57 C      5.6413     6.0000     0.3587     4.2139     4.2139    -0.0000
 58 C      5.5294     6.0000     0.4706     3.8610     3.8610     0.0000
 59 C      5.5807     6.0000     0.4193     4.0081     4.0081    -0.0000
 60 C      6.3032     6.0000    -0.3032     3.8638     3.8638    -0.0000
 61 C      5.7599     6.0000     0.2401     3.6093     3.6093     0.0000
 62 C      6.3393     6.0000    -0.3393     3.7780     3.7780    -0.0000
 63 C      5.4213     6.0000     0.5787     3.7544     3.7544    -0.0000
 64 C      5.6038     6.0000     0.3962     3.4659     3.4659    -0.0000
 65 C      6.0481     6.0000    -0.0481     3.6259     3.6259    -0.0000
 66 C      5.8620     6.0000     0.1380     3.8337     3.8337     0.0000
 67 C      5.4087     6.0000     0.5913     3.6065     3.6065    -0.0000
 68 C      5.5878     6.0000     0.4122     4.0254     4.0254    -0.0000
 69 C      6.0876     6.0000    -0.0876     3.7517     3.7517     0.0000
 70 C      6.3915     6.0000    -0.3915     3.8280     3.8280    -0.0000
 71 C      6.3855     6.0000    -0.3855     3.8379     3.8379    -0.0000
 72 C      5.8333     6.0000     0.1667     3.8203     3.8203    -0.0000
 73 C      6.4104     6.0000    -0.4104     3.8533     3.8533    -0.0000
 74 C      6.0232     6.0000    -0.0232     3.4987     3.4987    -0.0000
 75 C      6.3865     6.0000    -0.3865     3.7949     3.7949    -0.0000
 76 C      6.3934     6.0000    -0.3934     3.7903     3.7903     0.0000
 77 C      6.3934     6.0000    -0.3934     3.8386     3.8386    -0.0000
 78 H      0.7644     1.0000     0.2356     0.9172     0.9172    -0.0000
 79 H      0.8494     1.0000     0.1506     0.9110     0.9110     0.0000
 80 H      0.7718     1.0000     0.2282     0.8446     0.8446     0.0000
 81 H      0.8439     1.0000     0.1561     0.9612     0.9612    -0.0000
 82 H      0.9027     1.0000     0.0973     0.9917     0.9917    -0.0000
 83 H      0.8734     1.0000     0.1266     0.9309     0.9309     0.0000
 84 H      0.8879     1.0000     0.1121     0.9694     0.9694    -0.0000
 85 H      0.8813     1.0000     0.1187     0.9606     0.9606    -0.0000
 86 H      0.8790     1.0000     0.1210     0.9482     0.9482    -0.0000
 87 H      0.8852     1.0000     0.1148     0.9672     0.9672    -0.0000
 88 H      0.8845     1.0000     0.1155     0.9681     0.9681    -0.0000
 89 H      0.8518     1.0000     0.1482     0.9496     0.9496    -0.0000
 90 H      0.9038     1.0000     0.0962     1.0669     1.0669     0.0000
 91 H      0.8540     1.0000     0.1460     0.9518     0.9518    -0.0000
 92 H      0.8674     1.0000     0.1326     1.0331     1.0331     0.0000
 93 H      0.9600     1.0000     0.0400     1.1971     1.1971     0.0000
 94 H      0.8827     1.0000     0.1173     0.9599     0.9599    -0.0000
 95 H      0.8684     1.0000     0.1316     0.9419     0.9419    -0.0000
 96 H      0.8852     1.0000     0.1148     0.9571     0.9571    -0.0000
 97 H      0.9668     1.0000     0.0332     1.1516     1.1516     0.0000
 98 H      0.8954     1.0000     0.1046     0.9776     0.9776    -0.0000
 99 H      0.8848     1.0000     0.1152     0.9635     0.9635    -0.0000
100 H      0.8709     1.0000     0.1291     0.9542     0.9542    -0.0000
101 H      0.7195     1.0000     0.2805     0.8625     0.8625     0.0000
102 H      0.8896     1.0000     0.1104     0.9715     0.9715    -0.0000
103 H      0.8558     1.0000     0.1442     0.9545     0.9545    -0.0000
104 H      0.7426     1.0000     0.2574     0.9158     0.9158    -0.0000
105 H      0.8262     1.0000     0.1738     0.9241     0.9241     0.0000
106 H      0.8699     1.0000     0.1301     0.9688     0.9688    -0.0000
107 H      0.8299     1.0000     0.1701     0.9299     0.9299    -0.0000
108 H      0.8330     1.0000     0.1670     0.9516     0.9516    -0.0000
109 H      0.8878     1.0000     0.1122     0.9656     0.9656    -0.0000
110 H      0.9079     1.0000     0.0921     0.9713     0.9713    -0.0000
111 H      0.8714     1.0000     0.1286     0.9572     0.9572    -0.0000
112 H      0.8780     1.0000     0.1220     0.9589     0.9589    -0.0000
113 H      0.8536     1.0000     0.1464     0.9492     0.9492    -0.0000
114 H      0.9285     1.0000     0.0715     1.0960     1.0960     0.0000
115 H      0.8942     1.0000     0.1058     0.9683     0.9683    -0.0000
116 H      0.8658     1.0000     0.1342     0.9488     0.9488    -0.0000
117 H      0.8594     1.0000     0.1406     0.9424     0.9424    -0.0000
118 H      0.8593     1.0000     0.1407     0.9508     0.9508    -0.0000
119 H      0.8670     1.0000     0.1330     0.9686     0.9686     0.0000
120 H      0.8765     1.0000     0.1235     0.9438     0.9438    -0.0000
121 H      0.8555     1.0000     0.1445     0.9424     0.9424     0.0000
122 H      0.8803     1.0000     0.1197     0.9634     0.9634     0.0000
123 H      0.8690     1.0000     0.1310     0.9472     0.9472    -0.0000
124 H      0.8966     1.0000     0.1034     0.9799     0.9799    -0.0000
125 H      0.9006     1.0000     0.0994     0.9834     0.9834    -0.0000
126 H      0.8138     1.0000     0.1862     0.9170     0.9170     0.0000
127 H      1.0153     1.0000    -0.0153     1.3561     1.3561    -0.0000
128 H      0.8274     1.0000     0.1726     0.9338     0.9338    -0.0000
129 H      0.8924     1.0000     0.1076     0.9744     0.9744    -0.0000
130 H      0.8554     1.0000     0.1446     0.9255     0.9255    -0.0000
131 H      0.8902     1.0000     0.1098     1.0248     1.0248     0.0000
132 H      0.8871     1.0000     0.1129     0.9722     0.9722    -0.0000
133 H      0.8581     1.0000     0.1419     0.9054     0.9054     0.0000
134 H      0.8715     1.0000     0.1285     0.9794     0.9794    -0.0000
135 H      0.8854     1.0000     0.1146     0.9587     0.9587    -0.0000
136 H      0.9019     1.0000     0.0981     1.0735     1.0735     0.0000
137 H      0.8574     1.0000     0.1426     0.9502     0.9502     0.0000
138 H      0.9591     1.0000     0.0409     1.2106     1.2106     0.0000
139 H      0.7368     1.0000     0.2632     0.9355     0.9355    -0.0000
140 H      0.9177     1.0000     0.0823     1.0005     1.0005    -0.0000
141 H      0.8956     1.0000     0.1044     0.9912     0.9912     0.0000
142 H      0.8822     1.0000     0.1178     0.9534     0.9534    -0.0000
143 H      0.8294     1.0000     0.1706     0.9619     0.9619    -0.0000
144 H      0.8708     1.0000     0.1292     0.9622     0.9622    -0.0000
145 H      0.7916     1.0000     0.2084     0.9444     0.9444     0.0000
146 H      0.8921     1.0000     0.1079     0.9380     0.9380     0.0000
147 H      0.8870     1.0000     0.1130     0.9754     0.9754    -0.0000
148 H      0.8677     1.0000     0.1323     0.9473     0.9473    -0.0000
149 H      0.7872     1.0000     0.2128     0.9869     0.9869    -0.0000
150 H      0.8200     1.0000     0.1800     0.8939     0.8939    -0.0000
151 H      0.8298     1.0000     0.1702     0.9224     0.9224     0.0000
152 H      0.8464     1.0000     0.1536     0.9594     0.9594    -0.0000
153 H      0.8796     1.0000     0.1204     0.9632     0.9632    -0.0000
154 H      0.8775     1.0000     0.1225     0.9633     0.9633     0.0000
155 H      0.8747     1.0000     0.1253     0.9531     0.9531    -0.0000
156 H      0.8904     1.0000     0.1096     0.9598     0.9598     0.0000
157 H      0.8705     1.0000     0.1295     0.9652     0.9652    -0.0000
158 H      0.8769     1.0000     0.1231     0.9763     0.9763    -0.0000
159 H      0.8608     1.0000     0.1392     0.9608     0.9608    -0.0000
160 H      0.8735     1.0000     0.1265     0.9781     0.9781     0.0000
161 H      0.9529     1.0000     0.0471     1.1231     1.1231    -0.0000
162 H      0.8814     1.0000     0.1186     0.9601     0.9601    -0.0000
163 H      0.8616     1.0000     0.1384     0.9474     0.9474     0.0000
164 H      0.8731     1.0000     0.1269     0.9629     0.9629    -0.0000
165 H      0.8792     1.0000     0.1208     0.9717     0.9717     0.0000
166 H      0.8702     1.0000     0.1298     0.9438     0.9438     0.0000
167 H      0.8794     1.0000     0.1206     0.9659     0.9659    -0.0000

  Mayer bond orders larger than 0.100000
B(  0-O , 27-C ) :   1.0798 B(  0-O , 55-C ) :   0.8960 B(  1-O , 28-C ) :   1.7848 
B(  2-O , 27-C ) :   1.8105 B(  3-O , 36-C ) :   1.6450 B(  4-O , 18-N ) :   0.1009 
B(  4-O , 29-C ) :   1.3129 B(  5-O , 39-C ) :   1.8327 B(  6-O , 28-C ) :   1.0043 
B(  6-O , 35-C ) :   0.8729 B(  7-O , 41-C ) :   1.3897 B(  8-O , 38-C ) :   0.8844 
B(  8-O , 39-C ) :   1.0913 B(  9-O , 25-C ) :   1.0178 B(  9-O , 57-C ) :   1.0723 
B( 10-O , 59-C ) :   1.7728 B( 11-O , 57-C ) :   1.7597 B( 12-O , 63-C ) :   1.6572 
B( 13-O , 58-C ) :   1.3982 B( 14-O , 67-C ) :   1.6967 B( 15-O , 59-C ) :   1.1207 
B( 15-O , 64-C ) :   0.8413 B( 16-O , 68-C ) :   1.4836 B( 17-O , 66-C ) :   0.8764 
B( 17-O , 67-C ) :   1.0312 B( 18-N , 26-C ) :   0.8538 B( 18-N , 29-C ) :   1.1948 
B( 18-N ,127-H ) :   1.0935 B( 19-N , 33-C ) :   0.8359 B( 19-N , 36-C ) :   1.2083 
B( 19-N ,104-H ) :   0.8949 B( 20-N , 41-C ) :   1.2569 B( 20-N , 43-C ) :   0.8964 
B( 20-N ,101-H ) :   0.9031 B( 21-N , 56-C ) :   0.8737 B( 21-N , 58-C ) :   1.1876 
B( 21-N , 78-H ) :   0.9327 B( 22-N , 61-C ) :   0.8542 B( 22-N , 63-C ) :   1.1908 
B( 22-N ,149-H ) :   0.9593 B( 23-N , 68-C ) :   1.2880 B( 23-N , 72-C ) :   0.9072 
B( 23-N ,145-H ) :   0.9663 B( 24-C , 51-C ) :   0.8811 B( 24-C , 84-H ) :   0.9790 
B( 24-C , 86-H ) :   0.9775 B( 24-C ,125-H ) :   0.9844 B( 25-C , 29-C ) :   0.8456 
B( 25-C , 32-C ) :   0.9037 B( 25-C , 80-H ) :   0.8680 B( 26-C , 28-C ) :   0.8760 
B( 26-C , 51-C ) :   0.8209 B( 26-C , 93-H ) :   1.0003 B( 27-C , 33-C ) :   0.9862 
B( 30-C , 32-C ) :   0.9420 B( 30-C , 85-H ) :   0.9761 B( 30-C , 88-H ) :   0.9757 
B( 30-C , 95-H ) :   0.9513 B( 31-C , 37-C ) :   0.9439 B( 31-C , 87-H ) :   0.9728 
B( 31-C , 89-H ) :   0.9663 B( 31-C , 94-H ) :   0.9634 B( 32-C , 34-C ) :   0.9111 
B( 32-C , 96-H ) :   0.9649 B( 33-C , 37-C ) :   0.8307 B( 33-C , 90-H ) :   0.9339 
B( 34-C , 91-H ) :   0.9599 B( 34-C , 99-H ) :   0.9666 B( 34-C ,100-H ) :   0.9762 
B( 35-C , 40-C ) :   0.9076 B( 35-C , 41-C ) :   1.0025 B( 35-C , 92-H ) :   0.8789 
B( 36-C , 38-C ) :   0.9589 B( 37-C , 42-C ) :   1.0013 B( 37-C ,103-H ) :   0.9450 
B( 38-C , 44-C ) :   0.8520 B( 38-C , 97-H ) :   0.9823 B( 39-C , 43-C ) :   0.7942 
B( 40-C , 98-H ) :   0.9825 B( 40-C ,106-H ) :   0.9559 B( 40-C ,108-H ) :   0.9504 
B( 42-C ,102-H ) :   0.9736 B( 42-C ,109-H ) :   0.9622 B( 42-C ,111-H ) :   0.9728 
B( 43-C , 45-C ) :   0.8140 B( 43-C ,114-H ) :   0.9888 B( 44-C , 46-C ) :   0.9607 
B( 44-C , 49-C ) :   0.9662 B( 44-C ,107-H ) :   0.9437 B( 45-C , 47-C ) :   0.9324 
B( 45-C , 48-C ) :   0.9154 B( 45-C ,105-H ) :   0.9656 B( 46-C ,110-H ) :   0.9782 
B( 46-C ,116-H ) :   0.9543 B( 46-C ,118-H ) :   0.9650 B( 47-C ,112-H ) :   0.9821 
B( 47-C ,117-H ) :   0.9474 B( 47-C ,119-H ) :   0.9707 B( 48-C ,113-H ) :   0.9681 
B( 48-C ,120-H ) :   0.9567 B( 48-C ,122-H ) :   0.9645 B( 49-C ,115-H ) :   0.9756 
B( 49-C ,121-H ) :   0.9621 B( 49-C ,123-H ) :   0.9545 B( 50-C , 53-C ) :   1.0138 
B( 50-C , 79-H ) :   0.9380 B( 50-C , 82-H ) :   0.9776 B( 50-C ,130-H ) :   0.9502 
B( 51-C , 52-C ) :   1.0088 B( 51-C ,131-H ) :   0.9750 B( 52-C , 83-H ) :   0.9501 
B( 52-C ,126-H ) :   0.9306 B( 52-C ,129-H ) :   0.9684 B( 53-C , 54-C ) :   0.8847 
B( 53-C , 56-C ) :   0.8343 B( 53-C , 81-H ) :   0.9600 B( 54-C ,124-H ) :   0.9815 
B( 54-C ,132-H ) :   0.9751 B( 54-C ,133-H ) :   0.9739 B( 55-C , 58-C ) :   1.0110 
B( 55-C , 60-C ) :   0.8142 B( 55-C ,128-H ) :   0.8808 B( 56-C , 59-C ) :   0.7903 
B( 56-C ,138-H ) :   0.9956 B( 57-C , 61-C ) :   1.0100 B( 60-C ,134-H ) :   0.9756 
B( 60-C ,140-H ) :   0.9950 B( 60-C ,141-H ) :   0.9725 B( 61-C , 65-C ) :   0.8329 
B( 61-C ,136-H ) :   0.9089 B( 62-C , 65-C ) :   0.9247 B( 62-C ,135-H ) :   0.9687 
B( 62-C ,137-H ) :   0.9651 B( 62-C ,142-H ) :   0.9582 B( 63-C , 66-C ) :   0.9505 
B( 64-C , 68-C ) :   0.8786 B( 64-C , 69-C ) :   0.9150 B( 64-C ,139-H ) :   0.8364 
B( 65-C , 71-C ) :   0.9899 B( 65-C ,148-H ) :   0.9573 B( 66-C , 73-C ) :   0.9840 
B( 66-C ,143-H ) :   0.9281 B( 67-C , 72-C ) :   0.8390 B( 69-C , 70-C ) :   1.0063 
B( 69-C , 75-C ) :   0.9115 B( 69-C ,146-H ) :   0.9458 B( 70-C ,144-H ) :   0.9568 
B( 70-C ,151-H ) :   0.9717 B( 70-C ,154-H ) :   0.9640 B( 71-C ,147-H ) :   0.9792 
B( 71-C ,153-H ) :   0.9592 B( 71-C ,155-H ) :   0.9759 B( 72-C , 74-C ) :   0.8461 
B( 72-C ,161-H ) :   0.9898 B( 73-C ,152-H ) :   0.9635 B( 73-C ,157-H ) :   0.9661 
B( 73-C ,160-H ) :   0.9663 B( 74-C , 76-C ) :   0.9022 B( 74-C , 77-C ) :   0.9399 
B( 74-C ,150-H ) :   0.9427 B( 75-C ,158-H ) :   0.9694 B( 75-C ,162-H ) :   0.9643 
B( 75-C ,164-H ) :   0.9750 B( 76-C ,156-H ) :   0.9792 B( 76-C ,163-H ) :   0.9584 
B( 76-C ,165-H ) :   0.9731 B( 77-C ,159-H ) :   0.9750 B( 77-C ,166-H ) :   0.9567 
B( 77-C ,167-H ) :   0.9687 

-------
TIMINGS
-------

Total SCF time: 0 days 16 hours 21 min 55 sec 

Total time                  ....   58915.564 sec
Sum of individual times     ....   58779.671 sec  ( 99.8%)

Fock matrix formation       ....   58384.737 sec  ( 99.1%)
Diagonalization             ....      79.355 sec  (  0.1%)
Density matrix formation    ....       8.806 sec  (  0.0%)
Population analysis         ....      80.160 sec  (  0.1%)
Initial guess               ....      21.161 sec  (  0.0%)
Orbital Transformation      ....       0.000 sec  (  0.0%)
Orbital Orthonormalization  ....       0.000 sec  (  0.0%)
DIIS solution               ....      99.728 sec  (  0.2%)
SOSCF solution              ....     104.445 sec  (  0.2%)

Maximum memory used throughout the entire SCF-calculation: 4489.7 MB

-------------------------   --------------------
FINAL SINGLE POINT ENERGY     -3772.833573515261
-------------------------   --------------------


                            ***************************************
                            *     ORCA property calculations      *
                            ***************************************

                                    ---------------------
                                    Active property flags
                                    ---------------------
   (+) Dipole Moment


------------------------------------------------------------------------------
                       ORCA ELECTRIC PROPERTIES CALCULATION
------------------------------------------------------------------------------

Dipole Moment Calculation                       ... on
Quadrupole Moment Calculation                   ... off
Polarizability Calculation                      ... off
GBWName                                         ... pc3.gbw
Electron density                                ... pc3.scfp
The origin for moment calculation is the CENTER OF MASS  = (-0.057684,  0.180669 -0.057588)

-------------
DIPOLE MOMENT
-------------
                                X             Y             Z
Electronic contribution:     -4.94715      14.38394      -4.50611
Nuclear contribution   :      4.74110     -14.78988       4.90468
                        -----------------------------------------
Total Dipole Moment    :     -0.20605      -0.40594       0.39858
                        -----------------------------------------
Magnitude (a.u.)       :      0.60507
Magnitude (Debye)      :      1.53796



--------------------
Rotational spectrum 
--------------------
 
Rotational constants in cm-1:     0.001327     0.000669     0.000660 
Rotational constants in MHz :    39.769063    20.052824    19.784539 

 Dipole components along the rotational axes: 
x,y,z [a.u.] :     0.466455    -0.113157    -0.368404 
x,y,z [Debye]:     1.185635    -0.287622    -0.936409 

 

Timings for individual modules:

Sum of individual times         ...    58964.094 sec (= 982.735 min)
GTO integral calculation        ...       43.094 sec (=   0.718 min)   0.1 %
SCF iterations                  ...    58920.999 sec (= 982.017 min)  99.9 %
                             ****ORCA TERMINATED NORMALLY****
TOTAL RUN TIME: 0 days 16 hours 23 minutes 15 seconds 85 msec
